<?xml version="1.0"?>
<VTKFile type="UnstructuredGrid"  version="0.1"  >
<UnstructuredGrid>
<Piece  NumberOfPoints="22" NumberOfCells="20">
<Points>
<DataArray  type="Float64"  NumberOfComponents="3"  format="ascii">0 0 0  3.14159 0 0  6.28318 0 0  9.424770000000001 0 0  12.56636 0 0  15.70795 0 0  18.84954 0 0  21.99113 0 0  25.13272 0 0  28.27431 0 0  31.4159 0 0  0 1 0  3.14159 1 0  6.28318 1 0  9.424770000000001 1 0  12.56636 1 0  15.70795 1 0  18.84954 1 0  21.99113 1 0  25.13272 1 0  28.27431 1 0  31.4159 1 0  </DataArray>
</Points>
<Cells>
<DataArray  type="UInt32"  Name="connectivity"  format="ascii">0 1 12  0 11 12  1 2 13  1 12 13  2 3 14  2 13 14  3 4 15  3 14 15  4 5 16  4 15 16  5 6 17  5 16 17  6 7 18  6 17 18  7 8 19  7 18 19  8 9 20  8 19 20  9 10 21  9 20 21  </DataArray>
<DataArray  type="UInt32"  Name="offsets"  format="ascii">3 6 9 12 15 18 21 24 27 30 33 36 39 42 45 48 51 54 57 60 </DataArray>
<DataArray  type="UInt8"  Name="types"  format="ascii">5 5 5 5 5 5 5 5 5 5 5 5 5 5 5 5 5 5 5 5 </DataArray>
</Cells>
<PointData  Vectors="f_5"> 
<DataArray  type="Float64"  Name="f_5"  NumberOfComponents="3" format="ascii">0.0000000000000000e+00 0.0000000000000000e+00 0.0000000000000000e+00  2.1005042090560708e-14 7.0689707765261313e-14 0.0000000000000000e+00  2.5417543428003061e-14 2.2997133698587069e-13 0.0000000000000000e+00  8.7015351762238915e-15 3.5348586597088850e-13 0.0000000000000000e+00  -1.7100785287447208e-14 3.3879411791387854e-13 0.0000000000000000e+00  -3.1257976048298844e-14 1.9033758123121627e-13 0.0000000000000000e+00  -1.6801780704077212e-14 4.5553021871768846e-14 0.0000000000000000e+00  7.9876242067414517e-15 2.9325132823741973e-14 0.0000000000000000e+00  2.3647379330374639e-14 1.4318754768780675e-13 0.0000000000000000e+00  1.9097431623772210e-14 2.9036041577368301e-13 0.0000000000000000e+00  0.0000000000000000e+00 3.5450658773786135e-13 0.0000000000000000e+00  0.0000000000000000e+00 4.5396955820114502e-03 0.0000000000000000e+00  -2.2571599767219476e-14 4.5396955820825539e-03 0.0000000000000000e+00  -2.8134969791257983e-14 4.5396955822419758e-03 0.0000000000000000e+00  -1.2148291532768757e-14 4.5396955823651690e-03 0.0000000000000000e+00  1.3363465210014356e-14 4.5396955823498487e-03 0.0000000000000000e+00  2.7060910020889905e-14 4.5396955822011283e-03 0.0000000000000000e+00  1.2824757022055030e-14 4.5396955820566501e-03 0.0000000000000000e+00  -1.1538763663164575e-14 4.5396955820408294e-03 0.0000000000000000e+00  -2.6034496218066709e-14 4.5396955821549049e-03 0.0000000000000000e+00  -2.0394102199907800e-14 4.5396955823019487e-03 0.0000000000000000e+00  0.0000000000000000e+00 4.5396955823659184e-03 0.0000000000000000e+00  </DataArray> 
</PointData> 
</Piece>
</UnstructuredGrid>
</VTKFile>