<?xml version="1.0"?>
<VTKFile type="UnstructuredGrid"  version="0.1"  >
<UnstructuredGrid>
<Piece  NumberOfPoints="22" NumberOfCells="20">
<Points>
<DataArray  type="Float64"  NumberOfComponents="3"  format="ascii">0 0 0  3.14159 0 0  6.28318 0 0  9.424770000000001 0 0  12.56636 0 0  15.70795 0 0  18.84954 0 0  21.99113 0 0  25.13272 0 0  28.27431 0 0  31.4159 0 0  0 1 0  3.14159 1 0  6.28318 1 0  9.424770000000001 1 0  12.56636 1 0  15.70795 1 0  18.84954 1 0  21.99113 1 0  25.13272 1 0  28.27431 1 0  31.4159 1 0  </DataArray>
</Points>
<Cells>
<DataArray  type="UInt32"  Name="connectivity"  format="ascii">0 1 12  0 11 12  1 2 13  1 12 13  2 3 14  2 13 14  3 4 15  3 14 15  4 5 16  4 15 16  5 6 17  5 16 17  6 7 18  6 17 18  7 8 19  7 18 19  8 9 20  8 19 20  9 10 21  9 20 21  </DataArray>
<DataArray  type="UInt32"  Name="offsets"  format="ascii">3 6 9 12 15 18 21 24 27 30 33 36 39 42 45 48 51 54 57 60 </DataArray>
<DataArray  type="UInt8"  Name="types"  format="ascii">5 5 5 5 5 5 5 5 5 5 5 5 5 5 5 5 5 5 5 5 </DataArray>
</Cells>
<PointData  Vectors="f_5"> 
<DataArray  type="Float64"  Name="f_5"  NumberOfComponents="3" format="ascii">0.0000000000000000e+00 0.0000000000000000e+00 0.0000000000000000e+00  -7.7783142432717990e-15 -2.2493091392284217e-14 0.0000000000000000e+00  -1.3742933416995609e-14 -8.8868907350912599e-14 0.0000000000000000e+00  -1.0930663221370499e-14 -1.6359370418271453e-13 0.0000000000000000e+00  -1.4589486825648254e-15 -1.9530572092075589e-13 0.0000000000000000e+00  5.5079179389589096e-15 -1.7366529792595841e-13 0.0000000000000000e+00  8.5074813263900310e-15 -1.2044051618891186e-13 0.0000000000000000e+00  5.8243885111247589e-15 -6.6842679717117704e-14 0.0000000000000000e+00  4.9450468387719731e-16 -4.2612674296602214e-14 0.0000000000000000e+00  -1.7529451458921823e-15 -4.4072521104112754e-14 0.0000000000000000e+00  0.0000000000000000e+00 -4.9080612154369875e-14 0.0000000000000000e+00  0.0000000000000000e+00 2.4470060806208119e-03 0.0000000000000000e+00  6.9198020391121179e-15 2.4470060805981838e-03 0.0000000000000000e+00  1.2111526578834014e-14 2.4470060805316328e-03 0.0000000000000000e+00  8.7631176926839879e-15 2.4470060804569664e-03 0.0000000000000000e+00  -1.0193665238079780e-15 2.4470060804254188e-03 0.0000000000000000e+00  -7.9308987255121038e-15 2.4470060804471106e-03 0.0000000000000000e+00  -1.0916659238855837e-14 2.4470060805003905e-03 0.0000000000000000e+00  -7.5977574991857649e-15 2.4470060805538581e-03 0.0000000000000000e+00  -1.8985506791215457e-15 2.4470060805779647e-03 0.0000000000000000e+00  8.2011995059359457e-16 2.4470060805765149e-03 0.0000000000000000e+00  0.0000000000000000e+00 2.4470060805715159e-03 0.0000000000000000e+00  </DataArray> 
</PointData> 
</Piece>
</UnstructuredGrid>
</VTKFile>