<?xml version="1.0"?>
<VTKFile type="UnstructuredGrid"  version="0.1"  >
<UnstructuredGrid>
<Piece  NumberOfPoints="22" NumberOfCells="20">
<Points>
<DataArray  type="Float64"  NumberOfComponents="3"  format="ascii">0 0 0  3.14159 0 0  6.28318 0 0  9.424770000000001 0 0  12.56636 0 0  15.70795 0 0  18.84954 0 0  21.99113 0 0  25.13272 0 0  28.27431 0 0  31.4159 0 0  0 1 0  3.14159 1 0  6.28318 1 0  9.424770000000001 1 0  12.56636 1 0  15.70795 1 0  18.84954 1 0  21.99113 1 0  25.13272 1 0  28.27431 1 0  31.4159 1 0  </DataArray>
</Points>
<Cells>
<DataArray  type="UInt32"  Name="connectivity"  format="ascii">0 1 12  0 11 12  1 2 13  1 12 13  2 3 14  2 13 14  3 4 15  3 14 15  4 5 16  4 15 16  5 6 17  5 16 17  6 7 18  6 17 18  7 8 19  7 18 19  8 9 20  8 19 20  9 10 21  9 20 21  </DataArray>
<DataArray  type="UInt32"  Name="offsets"  format="ascii">3 6 9 12 15 18 21 24 27 30 33 36 39 42 45 48 51 54 57 60 </DataArray>
<DataArray  type="UInt8"  Name="types"  format="ascii">5 5 5 5 5 5 5 5 5 5 5 5 5 5 5 5 5 5 5 5 </DataArray>
</Cells>
<PointData  Vectors="f_5"> 
<DataArray  type="Float64"  Name="f_5"  NumberOfComponents="3" format="ascii">0.0000000000000000e+00 0.0000000000000000e+00 0.0000000000000000e+00  8.5404936931948285e-15 2.5970338519971684e-14 0.0000000000000000e+00  1.7684799446604420e-14 1.0944482027880311e-13 0.0000000000000000e+00  2.5737810449164849e-14 2.4701037483402991e-13 0.0000000000000000e+00  3.3878445733276490e-14 4.3794649022355523e-13 0.0000000000000000e+00  3.7887874666858998e-14 6.6743233021705422e-13 0.0000000000000000e+00  3.7715318067109678e-14 9.0947429259796684e-13 0.0000000000000000e+00  3.2169332430029578e-14 1.1315410804899146e-12 0.0000000000000000e+00  2.4952024819532832e-14 1.3148668240453138e-12 0.0000000000000000e+00  1.3216296030720529e-14 1.4369534949037655e-12 0.0000000000000000e+00  0.0000000000000000e+00 1.4797571923583176e-12 0.0000000000000000e+00  0.0000000000000000e+00 6.4978888720097511e-04 0.0000000000000000e+00  -8.7037682049667189e-15 6.4978888722700919e-04 0.0000000000000000e+00  -1.8040549802219934e-14 6.4978888731051314e-04 0.0000000000000000e+00  -2.6426635391017721e-14 6.4978888744818861e-04 0.0000000000000000e+00  -3.4733233342643917e-14 6.4978888763914230e-04 0.0000000000000000e+00  -3.8684228002010423e-14 6.4978888786859797e-04 0.0000000000000000e+00  -3.8486955928323847e-14 6.4978888811067028e-04 0.0000000000000000e+00  -3.2884399651411742e-14 6.4978888833263759e-04 0.0000000000000000e+00  -2.5473144671838754e-14 6.4978888851595557e-04 0.0000000000000000e+00  -1.3581386984140483e-14 6.4978888863800757e-04 0.0000000000000000e+00  0.0000000000000000e+00 6.4978888868079268e-04 0.0000000000000000e+00  </DataArray> 
</PointData> 
</Piece>
</UnstructuredGrid>
</VTKFile>