<?xml version="1.0"?>
<VTKFile type="UnstructuredGrid"  version="0.1"  >
<UnstructuredGrid>
<Piece  NumberOfPoints="22" NumberOfCells="20">
<Points>
<DataArray  type="Float64"  NumberOfComponents="3"  format="ascii">0 0 0  3.14159 0 0  6.28318 0 0  9.424770000000001 0 0  12.56636 0 0  15.70795 0 0  18.84954 0 0  21.99113 0 0  25.13272 0 0  28.27431 0 0  31.4159 0 0  0 1 0  3.14159 1 0  6.28318 1 0  9.424770000000001 1 0  12.56636 1 0  15.70795 1 0  18.84954 1 0  21.99113 1 0  25.13272 1 0  28.27431 1 0  31.4159 1 0  </DataArray>
</Points>
<Cells>
<DataArray  type="UInt32"  Name="connectivity"  format="ascii">0 1 12  0 11 12  1 2 13  1 12 13  2 3 14  2 13 14  3 4 15  3 14 15  4 5 16  4 15 16  5 6 17  5 16 17  6 7 18  6 17 18  7 8 19  7 18 19  8 9 20  8 19 20  9 10 21  9 20 21  </DataArray>
<DataArray  type="UInt32"  Name="offsets"  format="ascii">3 6 9 12 15 18 21 24 27 30 33 36 39 42 45 48 51 54 57 60 </DataArray>
<DataArray  type="UInt8"  Name="types"  format="ascii">5 5 5 5 5 5 5 5 5 5 5 5 5 5 5 5 5 5 5 5 </DataArray>
</Cells>
<PointData  Vectors="f_5"> 
<DataArray  type="Float64"  Name="f_5"  NumberOfComponents="3" format="ascii">0.0000000000000000e+00 0.0000000000000000e+00 0.0000000000000000e+00  1.3023493374776636e-14 4.5745349745482560e-14 0.0000000000000000e+00  1.4395362744753091e-14 1.4362065630594102e-13 0.0000000000000000e+00  3.3514336108260177e-15 2.1070597440066137e-13 0.0000000000000000e+00  -1.0377340760013207e-14 1.9990004038033196e-13 0.0000000000000000e+00  -1.6655725458628046e-14 1.2506825554748755e-13 0.0000000000000000e+00  -1.2111077798817756e-14 4.2959176932963734e-14 0.0000000000000000e+00  2.7649227140927925e-15 2.3425094156091782e-14 0.0000000000000000e+00  1.5496439799063626e-14 9.2717015400622186e-14 0.0000000000000000e+00  1.5723386508646150e-14 2.0293729885859847e-13 0.0000000000000000e+00  0.0000000000000000e+00 2.5845480781516019e-13 0.0000000000000000e+00  0.0000000000000000e+00 4.7387720198721426e-03 0.0000000000000000e+00  -1.4767077695787908e-14 4.7387720199180356e-03 0.0000000000000000e+00  -1.6773280201764379e-14 4.7387720200158497e-03 0.0000000000000000e+00  -6.8153817560298062e-15 4.7387720200827710e-03 0.0000000000000000e+00  6.3786226339887022e-15 4.7387720200716861e-03 0.0000000000000000e+00  1.2544069901729990e-14 4.7387720199966472e-03 0.0000000000000000e+00  8.1050855620665940e-15 4.7387720199145228e-03 0.0000000000000000e+00  -6.1820047298623444e-15 4.7387720198952933e-03 0.0000000000000000e+00  -1.7971359161805380e-14 4.7387720199647881e-03 0.0000000000000000e+00  -1.6953707126898877e-14 4.7387720200751495e-03 0.0000000000000000e+00  0.0000000000000000e+00 4.7387720201303692e-03 0.0000000000000000e+00  </DataArray> 
</PointData> 
</Piece>
</UnstructuredGrid>
</VTKFile>