<?xml version="1.0"?>
<VTKFile type="UnstructuredGrid"  version="0.1"  >
<UnstructuredGrid>
<Piece  NumberOfPoints="22" NumberOfCells="20">
<Points>
<DataArray  type="Float64"  NumberOfComponents="3"  format="ascii">0 0 0  3.14159 0 0  6.28318 0 0  9.424770000000001 0 0  12.56636 0 0  15.70795 0 0  18.84954 0 0  21.99113 0 0  25.13272 0 0  28.27431 0 0  31.4159 0 0  0 1 0  3.14159 1 0  6.28318 1 0  9.424770000000001 1 0  12.56636 1 0  15.70795 1 0  18.84954 1 0  21.99113 1 0  25.13272 1 0  28.27431 1 0  31.4159 1 0  </DataArray>
</Points>
<Cells>
<DataArray  type="UInt32"  Name="connectivity"  format="ascii">0 1 12  0 11 12  1 2 13  1 12 13  2 3 14  2 13 14  3 4 15  3 14 15  4 5 16  4 15 16  5 6 17  5 16 17  6 7 18  6 17 18  7 8 19  7 18 19  8 9 20  8 19 20  9 10 21  9 20 21  </DataArray>
<DataArray  type="UInt32"  Name="offsets"  format="ascii">3 6 9 12 15 18 21 24 27 30 33 36 39 42 45 48 51 54 57 60 </DataArray>
<DataArray  type="UInt8"  Name="types"  format="ascii">5 5 5 5 5 5 5 5 5 5 5 5 5 5 5 5 5 5 5 5 </DataArray>
</Cells>
<PointData  Vectors="f_5"> 
<DataArray  type="Float64"  Name="f_5"  NumberOfComponents="3" format="ascii">0.0000000000000000e+00 0.0000000000000000e+00 0.0000000000000000e+00  -7.7010185501275802e-15 -2.4880922884623014e-14 0.0000000000000000e+00  -1.1799329960569515e-14 -8.7855554035634484e-14 0.0000000000000000e+00  -1.2643716097764987e-14 -1.6437193730798357e-13 0.0000000000000000e+00  -1.1840318000221710e-14 -2.4267509038579327e-13 0.0000000000000000e+00  -8.4712344388440594e-15 -3.0615573102854485e-13 0.0000000000000000e+00  -5.9203511824666212e-15 -3.5183867520638710e-13 0.0000000000000000e+00  -4.1719364360346814e-15 -3.8308437435714912e-13 0.0000000000000000e+00  -2.3655254705087865e-15 -4.0268190797440435e-13 0.0000000000000000e+00  -2.1659448186483576e-15 -4.1635756643283049e-13 0.0000000000000000e+00  0.0000000000000000e+00 -4.2461451741140480e-13 0.0000000000000000e+00  0.0000000000000000e+00 5.9982010791916854e-04 0.0000000000000000e+00  7.7256406740140743e-15 5.9982010789418430e-04 0.0000000000000000e+00  1.1643804298106082e-14 5.9982010783121112e-04 0.0000000000000000e+00  1.2571002336549989e-14 5.9982010775469670e-04 0.0000000000000000e+00  1.1944488586319597e-14 5.9982010767640245e-04 0.0000000000000000e+00  8.3782156636622780e-15 5.9982010761288175e-04 0.0000000000000000e+00  5.9146780976016834e-15 5.9982010756737475e-04 0.0000000000000000e+00  3.9996262649504017e-15 5.9982010753604608e-04 0.0000000000000000e+00  2.2916325843973490e-15 5.9982010751642690e-04 0.0000000000000000e+00  2.0356941256258789e-15 5.9982010750266924e-04 0.0000000000000000e+00  0.0000000000000000e+00 5.9982010749438225e-04 0.0000000000000000e+00  </DataArray> 
</PointData> 
</Piece>
</UnstructuredGrid>
</VTKFile>