<?xml version="1.0"?>
<VTKFile type="UnstructuredGrid"  version="0.1"  >
<UnstructuredGrid>
<Piece  NumberOfPoints="22" NumberOfCells="20">
<Points>
<DataArray  type="Float64"  NumberOfComponents="3"  format="ascii">0 0 0  3.14159 0 0  6.28318 0 0  9.424770000000001 0 0  12.56636 0 0  15.70795 0 0  18.84954 0 0  21.99113 0 0  25.13272 0 0  28.27431 0 0  31.4159 0 0  0 1 0  3.14159 1 0  6.28318 1 0  9.424770000000001 1 0  12.56636 1 0  15.70795 1 0  18.84954 1 0  21.99113 1 0  25.13272 1 0  28.27431 1 0  31.4159 1 0  </DataArray>
</Points>
<Cells>
<DataArray  type="UInt32"  Name="connectivity"  format="ascii">0 1 12  0 11 12  1 2 13  1 12 13  2 3 14  2 13 14  3 4 15  3 14 15  4 5 16  4 15 16  5 6 17  5 16 17  6 7 18  6 17 18  7 8 19  7 18 19  8 9 20  8 19 20  9 10 21  9 20 21  </DataArray>
<DataArray  type="UInt32"  Name="offsets"  format="ascii">3 6 9 12 15 18 21 24 27 30 33 36 39 42 45 48 51 54 57 60 </DataArray>
<DataArray  type="UInt8"  Name="types"  format="ascii">5 5 5 5 5 5 5 5 5 5 5 5 5 5 5 5 5 5 5 5 </DataArray>
</Cells>
<PointData  Vectors="f_5"> 
<DataArray  type="Float64"  Name="f_5"  NumberOfComponents="3" format="ascii">0.0000000000000000e+00 0.0000000000000000e+00 0.0000000000000000e+00  1.3799855399439239e-14 4.9055209437453316e-14 0.0000000000000000e+00  1.4536110720208196e-14 1.4817752901914338e-13 0.0000000000000000e+00  2.6867201487866826e-15 2.1355227323481382e-13 0.0000000000000000e+00  -1.1969365933099594e-14 1.9404148598177062e-13 0.0000000000000000e+00  -1.7450308663367192e-14 1.0787175742584588e-13 0.0000000000000000e+00  -7.6057230849907446e-15 3.9068982208333998e-14 0.0000000000000000e+00  7.6086710314456961e-15 4.9235387709131003e-14 0.0000000000000000e+00  1.7579851555665097e-14 1.3959129107534921e-13 0.0000000000000000e+00  1.3497523569612315e-14 2.4735594513358539e-13 0.0000000000000000e+00  0.0000000000000000e+00 2.9359797953801636e-13 0.0000000000000000e+00  0.0000000000000000e+00 4.5894683899493022e-03 0.0000000000000000e+00  -1.5229292330126468e-14 4.5894683899984053e-03 0.0000000000000000e+00  -1.6731444476672778e-14 4.5894683900974224e-03 0.0000000000000000e+00  -5.6739657849213073e-15 4.5894683901626220e-03 0.0000000000000000e+00  8.5455511270944170e-15 4.5894683901428176e-03 0.0000000000000000e+00  1.3358118251292797e-14 4.5894683900565038e-03 0.0000000000000000e+00  3.7840556074037406e-15 4.5894683899877680e-03 0.0000000000000000e+00  -1.0631556973340476e-14 4.5894683899982266e-03 0.0000000000000000e+00  -1.9766296425904780e-14 4.5894683900886534e-03 0.0000000000000000e+00  -1.4804194682105059e-14 4.5894683901963563e-03 0.0000000000000000e+00  0.0000000000000000e+00 4.5894683902424974e-03 0.0000000000000000e+00  </DataArray> 
</PointData> 
</Piece>
</UnstructuredGrid>
</VTKFile>