<?xml version="1.0"?>
<VTKFile type="UnstructuredGrid"  version="0.1"  >
<UnstructuredGrid>
<Piece  NumberOfPoints="22" NumberOfCells="20">
<Points>
<DataArray  type="Float64"  NumberOfComponents="3"  format="ascii">0 0 0  3.14159 0 0  6.28318 0 0  9.424770000000001 0 0  12.56636 0 0  15.70795 0 0  18.84954 0 0  21.99113 0 0  25.13272 0 0  28.27431 0 0  31.4159 0 0  0 1 0  3.14159 1 0  6.28318 1 0  9.424770000000001 1 0  12.56636 1 0  15.70795 1 0  18.84954 1 0  21.99113 1 0  25.13272 1 0  28.27431 1 0  31.4159 1 0  </DataArray>
</Points>
<Cells>
<DataArray  type="UInt32"  Name="connectivity"  format="ascii">0 1 12  0 11 12  1 2 13  1 12 13  2 3 14  2 13 14  3 4 15  3 14 15  4 5 16  4 15 16  5 6 17  5 16 17  6 7 18  6 17 18  7 8 19  7 18 19  8 9 20  8 19 20  9 10 21  9 20 21  </DataArray>
<DataArray  type="UInt32"  Name="offsets"  format="ascii">3 6 9 12 15 18 21 24 27 30 33 36 39 42 45 48 51 54 57 60 </DataArray>
<DataArray  type="UInt8"  Name="types"  format="ascii">5 5 5 5 5 5 5 5 5 5 5 5 5 5 5 5 5 5 5 5 </DataArray>
</Cells>
<PointData  Vectors="f_5"> 
<DataArray  type="Float64"  Name="f_5"  NumberOfComponents="3" format="ascii">0.0000000000000000e+00 0.0000000000000000e+00 0.0000000000000000e+00  1.5335262169396644e-15 6.0894406204305765e-15 0.0000000000000000e+00  2.9962560551803819e-15 2.5639958090522480e-14 0.0000000000000000e+00  1.3605271999488295e-15 4.6775263519133463e-14 0.0000000000000000e+00  -3.0037160831439418e-15 4.9710492047484943e-14 0.0000000000000000e+00  -7.3512730060016280e-15 2.4259562416157227e-14 0.0000000000000000e+00  -6.7904014954290597e-15 -1.4049426130501035e-14 0.0000000000000000e+00  -2.2973796232171936e-15 -3.5410859359187480e-14 0.0000000000000000e+00  1.8200915020059018e-15 -2.9455985539122580e-14 0.0000000000000000e+00  2.6724352581301375e-15 -8.6872937462116897e-15 0.0000000000000000e+00  0.0000000000000000e+00 3.1105399774675098e-15 0.0000000000000000e+00  0.0000000000000000e+00 2.9456615390488559e-03 0.0000000000000000e+00  -2.4635244839501975e-15 2.9456615390549197e-03 0.0000000000000000e+00  -4.8294348302453002e-15 2.9456615390745121e-03 0.0000000000000000e+00  -3.4586225934868793e-15 2.9456615390955278e-03 0.0000000000000000e+00  3.9623344497915110e-16 2.9456615390985063e-03 0.0000000000000000e+00  4.8824828811407417e-15 2.9456615390728649e-03 0.0000000000000000e+00  4.3441861264378434e-15 2.9456615390345440e-03 0.0000000000000000e+00  3.3954986243128212e-17 2.9456615390133119e-03 0.0000000000000000e+00  -3.9143379568363199e-15 2.9456615390192824e-03 0.0000000000000000e+00  -3.8452518847169650e-15 2.9456615390400661e-03 0.0000000000000000e+00  0.0000000000000000e+00 2.9456615390518548e-03 0.0000000000000000e+00  </DataArray> 
</PointData> 
</Piece>
</UnstructuredGrid>
</VTKFile>