<?xml version="1.0"?>
<VTKFile type="UnstructuredGrid"  version="0.1"  >
<UnstructuredGrid>
<Piece  NumberOfPoints="22" NumberOfCells="20">
<Points>
<DataArray  type="Float64"  NumberOfComponents="3"  format="ascii">0 0 0  3.14159 0 0  6.28318 0 0  9.424770000000001 0 0  12.56636 0 0  15.70795 0 0  18.84954 0 0  21.99113 0 0  25.13272 0 0  28.27431 0 0  31.4159 0 0  0 1 0  3.14159 1 0  6.28318 1 0  9.424770000000001 1 0  12.56636 1 0  15.70795 1 0  18.84954 1 0  21.99113 1 0  25.13272 1 0  28.27431 1 0  31.4159 1 0  </DataArray>
</Points>
<Cells>
<DataArray  type="UInt32"  Name="connectivity"  format="ascii">0 1 12  0 11 12  1 2 13  1 12 13  2 3 14  2 13 14  3 4 15  3 14 15  4 5 16  4 15 16  5 6 17  5 16 17  6 7 18  6 17 18  7 8 19  7 18 19  8 9 20  8 19 20  9 10 21  9 20 21  </DataArray>
<DataArray  type="UInt32"  Name="offsets"  format="ascii">3 6 9 12 15 18 21 24 27 30 33 36 39 42 45 48 51 54 57 60 </DataArray>
<DataArray  type="UInt8"  Name="types"  format="ascii">5 5 5 5 5 5 5 5 5 5 5 5 5 5 5 5 5 5 5 5 </DataArray>
</Cells>
<PointData  Vectors="f_5"> 
<DataArray  type="Float64"  Name="f_5"  NumberOfComponents="3" format="ascii">0.0000000000000000e+00 0.0000000000000000e+00 0.0000000000000000e+00  -1.5528708898288686e-14 -5.0583409397696099e-14 0.0000000000000000e+00  -2.7515803780019488e-14 -1.8737841911645101e-13 0.0000000000000000e+00  -3.5778122427330279e-14 -3.8747803061915650e-13 0.0000000000000000e+00  -4.1194911463444812e-14 -6.3179817623191715e-13 0.0000000000000000e+00  -4.1155975418767680e-14 -8.9280728615385055e-13 0.0000000000000000e+00  -3.7438284553831040e-14 -1.1422126299349043e-12 0.0000000000000000e+00  -3.1303579632642890e-14 -1.3598206201022859e-12 0.0000000000000000e+00  -2.3235440711017113e-14 -1.5333627222907272e-12 0.0000000000000000e+00  -1.2698039524018822e-14 -1.6465780147352748e-12 0.0000000000000000e+00  0.0000000000000000e+00 -1.6883140782038689e-12 0.0000000000000000e+00  0.0000000000000000e+00 1.4998875168698923e-04 0.0000000000000000e+00  1.5821629231890213e-14 1.4998875163653764e-04 0.0000000000000000e+00  2.7615570493762899e-14 1.4998875149973743e-04 0.0000000000000000e+00  3.6090958928224000e-14 1.4998875129957438e-04 0.0000000000000000e+00  4.1331566054984944e-14 1.4998875105533095e-04 0.0000000000000000e+00  4.1500471283709177e-14 1.4998875079421880e-04 0.0000000000000000e+00  3.7686245487162152e-14 1.4998875054487496e-04 0.0000000000000000e+00  3.1676423452448664e-14 1.4998875032730060e-04 0.0000000000000000e+00  2.3416031844538226e-14 1.4998875015380806e-04 0.0000000000000000e+00  1.2673824094640678e-14 1.4998875004056420e-04 0.0000000000000000e+00  0.0000000000000000e+00 1.4998874999881491e-04 0.0000000000000000e+00  </DataArray> 
</PointData> 
</Piece>
</UnstructuredGrid>
</VTKFile>