<?xml version="1.0"?>
<VTKFile type="UnstructuredGrid"  version="0.1"  >
<UnstructuredGrid>
<Piece  NumberOfPoints="22" NumberOfCells="20">
<Points>
<DataArray  type="Float64"  NumberOfComponents="3"  format="ascii">0 0 0  3.14159 0 0  6.28318 0 0  9.424770000000001 0 0  12.56636 0 0  15.70795 0 0  18.84954 0 0  21.99113 0 0  25.13272 0 0  28.27431 0 0  31.4159 0 0  0 1 0  3.14159 1 0  6.28318 1 0  9.424770000000001 1 0  12.56636 1 0  15.70795 1 0  18.84954 1 0  21.99113 1 0  25.13272 1 0  28.27431 1 0  31.4159 1 0  </DataArray>
</Points>
<Cells>
<DataArray  type="UInt32"  Name="connectivity"  format="ascii">0 1 12  0 11 12  1 2 13  1 12 13  2 3 14  2 13 14  3 4 15  3 14 15  4 5 16  4 15 16  5 6 17  5 16 17  6 7 18  6 17 18  7 8 19  7 18 19  8 9 20  8 19 20  9 10 21  9 20 21  </DataArray>
<DataArray  type="UInt32"  Name="offsets"  format="ascii">3 6 9 12 15 18 21 24 27 30 33 36 39 42 45 48 51 54 57 60 </DataArray>
<DataArray  type="UInt8"  Name="types"  format="ascii">5 5 5 5 5 5 5 5 5 5 5 5 5 5 5 5 5 5 5 5 </DataArray>
</Cells>
<PointData  Vectors="f_5"> 
<DataArray  type="Float64"  Name="f_5"  NumberOfComponents="3" format="ascii">0.0000000000000000e+00 0.0000000000000000e+00 0.0000000000000000e+00  3.8930339244495882e-15 1.3794682613222703e-14 0.0000000000000000e+00  5.2308811149482398e-15 4.5234988188338999e-14 0.0000000000000000e+00  3.8673546972130490e-15 7.7280969683791242e-14 0.0000000000000000e+00  1.1068989619881796e-15 9.6325724558889238e-14 0.0000000000000000e+00  -3.2465664206604833e-15 9.3098948740855137e-14 0.0000000000000000e+00  -9.4832676583613967e-15 5.7047578356003979e-14 0.0000000000000000e+00  -1.4512700679447150e-14 -1.6658059190188890e-14 0.0000000000000000e+00  -1.5070497643566627e-14 -1.0924105535441598e-13 0.0000000000000000e+00  -9.8992626762736603e-15 -1.8724947879487537e-13 0.0000000000000000e+00  0.0000000000000000e+00 -2.1868280678942499e-13 0.0000000000000000e+00  0.0000000000000000e+00 8.9959536409058927e-04 0.0000000000000000e+00  -4.3070979216575803e-15 8.9959536410440613e-04 0.0000000000000000e+00  -5.9763768750695823e-15 8.9959536413572699e-04 0.0000000000000000e+00  -4.8702369196655835e-15 8.9959536416782534e-04 0.0000000000000000e+00  -1.9397516325559801e-15 8.9959536418679075e-04 0.0000000000000000e+00  2.2109127385317379e-15 8.9959536418361783e-04 0.0000000000000000e+00  8.3728714493090735e-15 8.9959536414750685e-04 0.0000000000000000e+00  1.3742770158838809e-14 8.9959536407367181e-04 0.0000000000000000e+00  1.4341944453382314e-14 8.9959536398107639e-04 0.0000000000000000e+00  9.5752212451625274e-15 8.9959536390314134e-04 0.0000000000000000e+00  0.0000000000000000e+00 8.9959536387170685e-04 0.0000000000000000e+00  </DataArray> 
</PointData> 
</Piece>
</UnstructuredGrid>
</VTKFile>