<?xml version="1.0"?>
<VTKFile type="UnstructuredGrid"  version="0.1"  >
<UnstructuredGrid>
<Piece  NumberOfPoints="22" NumberOfCells="20">
<Points>
<DataArray  type="Float64"  NumberOfComponents="3"  format="ascii">0 0 0  3.14159 0 0  6.28318 0 0  9.424770000000001 0 0  12.56636 0 0  15.70795 0 0  18.84954 0 0  21.99113 0 0  25.13272 0 0  28.27431 0 0  31.4159 0 0  0 1 0  3.14159 1 0  6.28318 1 0  9.424770000000001 1 0  12.56636 1 0  15.70795 1 0  18.84954 1 0  21.99113 1 0  25.13272 1 0  28.27431 1 0  31.4159 1 0  </DataArray>
</Points>
<Cells>
<DataArray  type="UInt32"  Name="connectivity"  format="ascii">0 1 12  0 11 12  1 2 13  1 12 13  2 3 14  2 13 14  3 4 15  3 14 15  4 5 16  4 15 16  5 6 17  5 16 17  6 7 18  6 17 18  7 8 19  7 18 19  8 9 20  8 19 20  9 10 21  9 20 21  </DataArray>
<DataArray  type="UInt32"  Name="offsets"  format="ascii">3 6 9 12 15 18 21 24 27 30 33 36 39 42 45 48 51 54 57 60 </DataArray>
<DataArray  type="UInt8"  Name="types"  format="ascii">5 5 5 5 5 5 5 5 5 5 5 5 5 5 5 5 5 5 5 5 </DataArray>
</Cells>
<PointData  Vectors="f_5"> 
<DataArray  type="Float64"  Name="f_5"  NumberOfComponents="3" format="ascii">0.0000000000000000e+00 0.0000000000000000e+00 0.0000000000000000e+00  6.3385764037275386e-15 2.1929928200878250e-14 0.0000000000000000e+00  9.5837216400795195e-15 7.4644898771001271e-14 0.0000000000000000e+00  9.6342886680722591e-15 1.3811010301760083e-13 0.0000000000000000e+00  6.3957564920249817e-15 1.9193802632755658e-13 0.0000000000000000e+00  -6.4696357669237556e-16 2.1505327073268139e-13 0.0000000000000000e+00  -1.1332108039604400e-14 1.8001050287970447e-13 0.0000000000000000e+00  -1.8255345796756779e-14 8.6661746908978049e-14 0.0000000000000000e+00  -1.6926511227199782e-14 -2.3817613137916073e-14 0.0000000000000000e+00  -9.1654029838157767e-15 -1.0444460236052041e-13 0.0000000000000000e+00  0.0000000000000000e+00 -1.3179113309596474e-13 0.0000000000000000e+00  0.0000000000000000e+00 1.3490899781156732e-03 0.0000000000000000e+00  -6.7800135954401864e-15 1.3490899781374108e-03 0.0000000000000000e+00  -1.0204221828996019e-14 1.3490899781901761e-03 0.0000000000000000e+00  -1.0279142830969289e-14 1.3490899782536054e-03 0.0000000000000000e+00  -7.3035099823676747e-15 1.3490899783074133e-03 0.0000000000000000e+00  -2.7616587934059182e-16 1.3490899783305933e-03 0.0000000000000000e+00  1.0778496832082173e-14 1.3490899782952113e-03 0.0000000000000000e+00  1.7372281357213165e-14 1.3490899782019365e-03 0.0000000000000000e+00  1.6146864482296916e-14 1.3490899780915925e-03 0.0000000000000000e+00  8.4488947917606301e-15 1.3490899780109337e-03 0.0000000000000000e+00  0.0000000000000000e+00 1.3490899779836809e-03 0.0000000000000000e+00  </DataArray> 
</PointData> 
</Piece>
</UnstructuredGrid>
</VTKFile>