<?xml version="1.0"?>
<VTKFile type="UnstructuredGrid"  version="0.1"  >
<UnstructuredGrid>
<Piece  NumberOfPoints="22" NumberOfCells="20">
<Points>
<DataArray  type="Float64"  NumberOfComponents="3"  format="ascii">0 0 0  3.14159 0 0  6.28318 0 0  9.424770000000001 0 0  12.56636 0 0  15.70795 0 0  18.84954 0 0  21.99113 0 0  25.13272 0 0  28.27431 0 0  31.4159 0 0  0 1 0  3.14159 1 0  6.28318 1 0  9.424770000000001 1 0  12.56636 1 0  15.70795 1 0  18.84954 1 0  21.99113 1 0  25.13272 1 0  28.27431 1 0  31.4159 1 0  </DataArray>
</Points>
<Cells>
<DataArray  type="UInt32"  Name="connectivity"  format="ascii">0 1 12  0 11 12  1 2 13  1 12 13  2 3 14  2 13 14  3 4 15  3 14 15  4 5 16  4 15 16  5 6 17  5 16 17  6 7 18  6 17 18  7 8 19  7 18 19  8 9 20  8 19 20  9 10 21  9 20 21  </DataArray>
<DataArray  type="UInt32"  Name="offsets"  format="ascii">3 6 9 12 15 18 21 24 27 30 33 36 39 42 45 48 51 54 57 60 </DataArray>
<DataArray  type="UInt8"  Name="types"  format="ascii">5 5 5 5 5 5 5 5 5 5 5 5 5 5 5 5 5 5 5 5 </DataArray>
</Cells>
<PointData  Vectors="f_5"> 
<DataArray  type="Float64"  Name="f_5"  NumberOfComponents="3" format="ascii">0.0000000000000000e+00 0.0000000000000000e+00 0.0000000000000000e+00  1.1670453279466469e-14 3.7560649605749991e-14 0.0000000000000000e+00  2.0807948433356319e-14 1.4036377516001050e-13 0.0000000000000000e+00  2.7800076070608126e-14 2.9455902397663955e-13 0.0000000000000000e+00  3.0446678823004715e-14 4.7771898316336340e-13 0.0000000000000000e+00  3.2132754080401909e-14 6.7472631766764032e-13 0.0000000000000000e+00  3.2212112633818165e-14 8.7879800011151955e-13 0.0000000000000000e+00  2.7943516927550907e-14 1.0682294490230444e-12 0.0000000000000000e+00  2.2032439666515538e-14 1.2270876136941905e-12 0.0000000000000000e+00  1.1917627490806272e-14 1.3340859215020482e-12 0.0000000000000000e+00  0.0000000000000000e+00 1.3725041347425553e-12 0.0000000000000000e+00  0.0000000000000000e+00 9.9995000499646976e-05 0.0000000000000000e+00  -1.1635411264339544e-14 9.9995000537183573e-05 0.0000000000000000e+00  -2.0694558238497044e-14 9.9995000639992027e-05 0.0000000000000000e+00  -2.7717515220226839e-14 9.9995000794139718e-05 0.0000000000000000e+00  -3.0446509250885829e-14 9.9995000977277525e-05 0.0000000000000000e+00  -3.2207143505433720e-14 9.9995001174318991e-05 0.0000000000000000e+00  -3.2275186095971301e-14 9.9995001378325236e-05 0.0000000000000000e+00  -2.7998299561510218e-14 9.9995001567822241e-05 0.0000000000000000e+00  -2.2066541122887413e-14 9.9995001726658293e-05 0.0000000000000000e+00  -1.1969997984110007e-14 9.9995001833678317e-05 0.0000000000000000e+00  0.0000000000000000e+00 9.9995001872094880e-05 0.0000000000000000e+00  </DataArray> 
</PointData> 
</Piece>
</UnstructuredGrid>
</VTKFile>