<?xml version="1.0"?>
<VTKFile type="UnstructuredGrid"  version="0.1"  >
<UnstructuredGrid>
<Piece  NumberOfPoints="22" NumberOfCells="20">
<Points>
<DataArray  type="Float64"  NumberOfComponents="3"  format="ascii">0 0 0  3.14159 0 0  6.28318 0 0  9.424770000000001 0 0  12.56636 0 0  15.70795 0 0  18.84954 0 0  21.99113 0 0  25.13272 0 0  28.27431 0 0  31.4159 0 0  0 1 0  3.14159 1 0  6.28318 1 0  9.424770000000001 1 0  12.56636 1 0  15.70795 1 0  18.84954 1 0  21.99113 1 0  25.13272 1 0  28.27431 1 0  31.4159 1 0  </DataArray>
</Points>
<Cells>
<DataArray  type="UInt32"  Name="connectivity"  format="ascii">0 1 12  0 11 12  1 2 13  1 12 13  2 3 14  2 13 14  3 4 15  3 14 15  4 5 16  4 15 16  5 6 17  5 16 17  6 7 18  6 17 18  7 8 19  7 18 19  8 9 20  8 19 20  9 10 21  9 20 21  </DataArray>
<DataArray  type="UInt32"  Name="offsets"  format="ascii">3 6 9 12 15 18 21 24 27 30 33 36 39 42 45 48 51 54 57 60 </DataArray>
<DataArray  type="UInt8"  Name="types"  format="ascii">5 5 5 5 5 5 5 5 5 5 5 5 5 5 5 5 5 5 5 5 </DataArray>
</Cells>
<PointData  Vectors="f_5"> 
<DataArray  type="Float64"  Name="f_5"  NumberOfComponents="3" format="ascii">0.0000000000000000e+00 0.0000000000000000e+00 0.0000000000000000e+00  8.3021241087792040e-15 2.5618881433306372e-14 0.0000000000000000e+00  1.7240803839877901e-14 1.0785777019172275e-13 0.0000000000000000e+00  2.4488339005788656e-14 2.4192885718557046e-13 0.0000000000000000e+00  2.8171215220317795e-14 4.1097650232416541e-13 0.0000000000000000e+00  2.8550030404726605e-14 5.9277809043503465e-13 0.0000000000000000e+00  2.4515372882970849e-14 7.6256082608832453e-13 0.0000000000000000e+00  1.8764488575776152e-14 9.0210851034829707e-13 0.0000000000000000e+00  1.0847981271312765e-14 9.9750809885428636e-13 0.0000000000000000e+00  4.1354305277914270e-15 1.0470734536671561e-12 0.0000000000000000e+00  0.0000000000000000e+00 1.0589377672162188e-12 0.0000000000000000e+00  0.0000000000000000e+00 1.1493395093461439e-03 0.0000000000000000e+00  -8.6278731651825035e-15 1.1493395093717829e-03 0.0000000000000000e+00  -1.7787659939303446e-14 1.1493395094541547e-03 0.0000000000000000e+00  -2.5321047848785052e-14 1.1493395095881673e-03 0.0000000000000000e+00  -2.9053537906520658e-14 1.1493395097572029e-03 0.0000000000000000e+00  -2.9206544109012335e-14 1.1493395099389412e-03 0.0000000000000000e+00  -2.5356444818916368e-14 1.1493395101087724e-03 0.0000000000000000e+00  -1.9658351230763381e-14 1.1493395102481305e-03 0.0000000000000000e+00  -1.1728911785025294e-14 1.1493395103435904e-03 0.0000000000000000e+00  -4.7518723743752387e-15 1.1493395103932210e-03 0.0000000000000000e+00  0.0000000000000000e+00 1.1493395104049508e-03 0.0000000000000000e+00  </DataArray> 
</PointData> 
</Piece>
</UnstructuredGrid>
</VTKFile>