<?xml version="1.0"?>
<VTKFile type="UnstructuredGrid"  version="0.1"  >
<UnstructuredGrid>
<Piece  NumberOfPoints="22" NumberOfCells="20">
<Points>
<DataArray  type="Float64"  NumberOfComponents="3"  format="ascii">0 0 0  3.14159 0 0  6.28318 0 0  9.424770000000001 0 0  12.56636 0 0  15.70795 0 0  18.84954 0 0  21.99113 0 0  25.13272 0 0  28.27431 0 0  31.4159 0 0  0 1 0  3.14159 1 0  6.28318 1 0  9.424770000000001 1 0  12.56636 1 0  15.70795 1 0  18.84954 1 0  21.99113 1 0  25.13272 1 0  28.27431 1 0  31.4159 1 0  </DataArray>
</Points>
<Cells>
<DataArray  type="UInt32"  Name="connectivity"  format="ascii">0 1 12  0 11 12  1 2 13  1 12 13  2 3 14  2 13 14  3 4 15  3 14 15  4 5 16  4 15 16  5 6 17  5 16 17  6 7 18  6 17 18  7 8 19  7 18 19  8 9 20  8 19 20  9 10 21  9 20 21  </DataArray>
<DataArray  type="UInt32"  Name="offsets"  format="ascii">3 6 9 12 15 18 21 24 27 30 33 36 39 42 45 48 51 54 57 60 </DataArray>
<DataArray  type="UInt8"  Name="types"  format="ascii">5 5 5 5 5 5 5 5 5 5 5 5 5 5 5 5 5 5 5 5 </DataArray>
</Cells>
<PointData  Vectors="f_5"> 
<DataArray  type="Float64"  Name="f_5"  NumberOfComponents="3" format="ascii">0.0000000000000000e+00 0.0000000000000000e+00 0.0000000000000000e+00  3.8186136697763855e-14 1.2356376778240203e-13 0.0000000000000000e+00  6.2206075213597331e-14 4.4737563286794201e-13 0.0000000000000000e+00  6.5282239002257362e-14 8.6078123038991351e-13 0.0000000000000000e+00  4.2994343136449469e-14 1.2133022718586643e-12 0.0000000000000000e+00  1.3326624859084855e-15 1.3617282054160465e-12 0.0000000000000000e+00  -4.3617619966971865e-14 1.2316622346086577e-12 0.0000000000000000e+00  -7.0061892944765260e-14 8.7106056659232790e-13 0.0000000000000000e+00  -6.8649425478027885e-14 4.2984018872527685e-13 0.0000000000000000e+00  -4.1437935291253704e-14 7.9502661131039448e-14 0.0000000000000000e+00  0.0000000000000000e+00 -5.2342150161723590e-14 0.0000000000000000e+00  0.0000000000000000e+00 1.6486409914409103e-03 0.0000000000000000e+00  -3.8907666810210118e-14 1.6486409915645855e-03 0.0000000000000000e+00  -6.3428464343285293e-14 1.6486409918886110e-03 0.0000000000000000e+00  -6.6751331383825095e-14 1.6486409923022033e-03 0.0000000000000000e+00  -4.4240185305205495e-14 1.6486409926545556e-03 0.0000000000000000e+00  -2.9936185260481589e-15 1.6486409928024874e-03 0.0000000000000000e+00  4.1937549665102263e-14 1.6486409926718861e-03 0.0000000000000000e+00  6.8598265930298045e-14 1.6486409923110992e-03 0.0000000000000000e+00  6.7557760794854447e-14 1.6486409918697953e-03 0.0000000000000000e+00  4.0770987851186336e-14 1.6486409915198676e-03 0.0000000000000000e+00  0.0000000000000000e+00 1.6486409913881448e-03 0.0000000000000000e+00  </DataArray> 
</PointData> 
</Piece>
</UnstructuredGrid>
</VTKFile>