<?xml version="1.0"?>
<VTKFile type="UnstructuredGrid"  version="0.1"  >
<UnstructuredGrid>
<Piece  NumberOfPoints="22" NumberOfCells="20">
<Points>
<DataArray  type="Float64"  NumberOfComponents="3"  format="ascii">0 0 0  3.14159 0 0  6.28318 0 0  9.424770000000001 0 0  12.56636 0 0  15.70795 0 0  18.84954 0 0  21.99113 0 0  25.13272 0 0  28.27431 0 0  31.4159 0 0  0 1 0  3.14159 1 0  6.28318 1 0  9.424770000000001 1 0  12.56636 1 0  15.70795 1 0  18.84954 1 0  21.99113 1 0  25.13272 1 0  28.27431 1 0  31.4159 1 0  </DataArray>
</Points>
<Cells>
<DataArray  type="UInt32"  Name="connectivity"  format="ascii">0 1 12  0 11 12  1 2 13  1 12 13  2 3 14  2 13 14  3 4 15  3 14 15  4 5 16  4 15 16  5 6 17  5 16 17  6 7 18  6 17 18  7 8 19  7 18 19  8 9 20  8 19 20  9 10 21  9 20 21  </DataArray>
<DataArray  type="UInt32"  Name="offsets"  format="ascii">3 6 9 12 15 18 21 24 27 30 33 36 39 42 45 48 51 54 57 60 </DataArray>
<DataArray  type="UInt8"  Name="types"  format="ascii">5 5 5 5 5 5 5 5 5 5 5 5 5 5 5 5 5 5 5 5 </DataArray>
</Cells>
<PointData  Vectors="f_5"> 
<DataArray  type="Float64"  Name="f_5"  NumberOfComponents="3" format="ascii">0.0000000000000000e+00 0.0000000000000000e+00 0.0000000000000000e+00  -1.8632904906232322e-14 -5.8654682258841076e-14 0.0000000000000000e+00  -2.8991556575689808e-14 -2.0837725922009872e-13 0.0000000000000000e+00  -2.6020132688432719e-14 -3.8139295239862687e-13 0.0000000000000000e+00  -1.1829912299469903e-14 -4.9654603711693740e-13 0.0000000000000000e+00  5.1472369056240475e-15 -5.1102733011645961e-13 0.0000000000000000e+00  1.8296563181708056e-14 -4.2799524627432675e-13 0.0000000000000000e+00  2.3103644288767186e-14 -2.8986833925465749e-13 0.0000000000000000e+00  2.1254986344383529e-14 -1.4324961465194709e-13 0.0000000000000000e+00  1.3185199789102992e-14 -3.0185100475097533e-14 0.0000000000000000e+00  0.0000000000000000e+00 1.3476125815846493e-14 0.0000000000000000e+00  0.0000000000000000e+00 2.1476937058729126e-03 0.0000000000000000e+00  1.7787402227383861e-14 2.1476937058140478e-03 0.0000000000000000e+00  2.7804350996353713e-14 2.1476937056642150e-03 0.0000000000000000e+00  2.4333164681293070e-14 2.1476937054911512e-03 0.0000000000000000e+00  9.7683299240838855e-15 2.1476937053762192e-03 0.0000000000000000e+00  -7.4520932567949411e-15 2.1476937053618119e-03 0.0000000000000000e+00  -2.0358355614716661e-14 2.1476937054450184e-03 0.0000000000000000e+00  -2.4963185829763062e-14 2.1476937055830442e-03 0.0000000000000000e+00  -2.2540503436225110e-14 2.1476937057297121e-03 0.0000000000000000e+00  -1.3662477663040591e-14 2.1476937058426877e-03 0.0000000000000000e+00  0.0000000000000000e+00 2.1476937058863455e-03 0.0000000000000000e+00  </DataArray> 
</PointData> 
</Piece>
</UnstructuredGrid>
</VTKFile>