<?xml version="1.0"?>
<VTKFile type="UnstructuredGrid"  version="0.1"  >
<UnstructuredGrid>
<Piece  NumberOfPoints="22" NumberOfCells="20">
<Points>
<DataArray  type="Float64"  NumberOfComponents="3"  format="ascii">0 0 0  3.14159 0 0  6.28318 0 0  9.424770000000001 0 0  12.56636 0 0  15.70795 0 0  18.84954 0 0  21.99113 0 0  25.13272 0 0  28.27431 0 0  31.4159 0 0  0 1 0  3.14159 1 0  6.28318 1 0  9.424770000000001 1 0  12.56636 1 0  15.70795 1 0  18.84954 1 0  21.99113 1 0  25.13272 1 0  28.27431 1 0  31.4159 1 0  </DataArray>
</Points>
<Cells>
<DataArray  type="UInt32"  Name="connectivity"  format="ascii">0 1 12  0 11 12  1 2 13  1 12 13  2 3 14  2 13 14  3 4 15  3 14 15  4 5 16  4 15 16  5 6 17  5 16 17  6 7 18  6 17 18  7 8 19  7 18 19  8 9 20  8 19 20  9 10 21  9 20 21  </DataArray>
<DataArray  type="UInt32"  Name="offsets"  format="ascii">3 6 9 12 15 18 21 24 27 30 33 36 39 42 45 48 51 54 57 60 </DataArray>
<DataArray  type="UInt8"  Name="types"  format="ascii">5 5 5 5 5 5 5 5 5 5 5 5 5 5 5 5 5 5 5 5 </DataArray>
</Cells>
<PointData  Vectors="f_5"> 
<DataArray  type="Float64"  Name="f_5"  NumberOfComponents="3" format="ascii">0.0000000000000000e+00 0.0000000000000000e+00 0.0000000000000000e+00  -5.5059678339605903e-14 -1.7575418285891314e-13 0.0000000000000000e+00  -8.8618457185614174e-14 -6.3443346190816250e-13 0.0000000000000000e+00  -8.9562949641864051e-14 -1.2003106018276425e-12 0.0000000000000000e+00  -6.0476884411427140e-14 -1.6754789831107970e-12 0.0000000000000000e+00  -1.1839835902070721e-14 -1.9019211619486687e-12 0.0000000000000000e+00  4.0230089704505048e-14 -1.8047855127936247e-12 0.0000000000000000e+00  7.5274136165859738e-14 -1.4279578628897268e-12 0.0000000000000000e+00  7.9341589124379349e-14 -9.2665575745454762e-13 0.0000000000000000e+00  5.0729741063448806e-14 -5.0512904619373664e-13 0.0000000000000000e+00  0.0000000000000000e+00 -3.3972877226107419e-13 0.0000000000000000e+00  0.0000000000000000e+00 1.8981984213763421e-03 0.0000000000000000e+00  5.4569920562084369e-14 1.8981984212004508e-03 0.0000000000000000e+00  8.7576966496394165e-14 1.8981984207414367e-03 0.0000000000000000e+00  8.8223961107103533e-14 1.8981984201755374e-03 0.0000000000000000e+00  5.8856513815321955e-14 1.8981984197005621e-03 0.0000000000000000e+00  1.0054807238584791e-14 1.8981984194746471e-03 0.0000000000000000e+00  -4.2142591809116794e-14 1.8981984195722522e-03 0.0000000000000000e+00  -7.6786597924321519e-14 1.8981984199492438e-03 0.0000000000000000e+00  -8.0464298236217962e-14 1.8981984204506257e-03 0.0000000000000000e+00  -5.1247252263924635e-14 1.8981984208718363e-03 0.0000000000000000e+00  0.0000000000000000e+00 1.8981984210371091e-03 0.0000000000000000e+00  </DataArray> 
</PointData> 
</Piece>
</UnstructuredGrid>
</VTKFile>