<?xml version="1.0"?>
<VTKFile type="UnstructuredGrid"  version="0.1"  >
<UnstructuredGrid>
<Piece  NumberOfPoints="22" NumberOfCells="20">
<Points>
<DataArray  type="Float64"  NumberOfComponents="3"  format="ascii">0 0 0  3.14159 0 0  6.28318 0 0  9.424770000000001 0 0  12.56636 0 0  15.70795 0 0  18.84954 0 0  21.99113 0 0  25.13272 0 0  28.27431 0 0  31.4159 0 0  0 1 0  3.14159 1 0  6.28318 1 0  9.424770000000001 1 0  12.56636 1 0  15.70795 1 0  18.84954 1 0  21.99113 1 0  25.13272 1 0  28.27431 1 0  31.4159 1 0  </DataArray>
</Points>
<Cells>
<DataArray  type="UInt32"  Name="connectivity"  format="ascii">0 1 12  0 11 12  1 2 13  1 12 13  2 3 14  2 13 14  3 4 15  3 14 15  4 5 16  4 15 16  5 6 17  5 16 17  6 7 18  6 17 18  7 8 19  7 18 19  8 9 20  8 19 20  9 10 21  9 20 21  </DataArray>
<DataArray  type="UInt32"  Name="offsets"  format="ascii">3 6 9 12 15 18 21 24 27 30 33 36 39 42 45 48 51 54 57 60 </DataArray>
<DataArray  type="UInt8"  Name="types"  format="ascii">5 5 5 5 5 5 5 5 5 5 5 5 5 5 5 5 5 5 5 5 </DataArray>
</Cells>
<PointData  Vectors="f_5"> 
<DataArray  type="Float64"  Name="f_5"  NumberOfComponents="3" format="ascii">0.0000000000000000e+00 0.0000000000000000e+00 0.0000000000000000e+00  4.6402064060937347e-15 1.8271045666039328e-14 0.0000000000000000e+00  3.8844226722121952e-15 5.2124580528197071e-14 0.0000000000000000e+00  -5.6731643014800585e-16 7.0187467810131129e-14 0.0000000000000000e+00  -3.0839666389205883e-15 6.7497436139951646e-14 0.0000000000000000e+00  -2.7164635695618581e-15 5.9720016407710055e-14 0.0000000000000000e+00  -3.3933669748346349e-15 5.0266102383181484e-14 0.0000000000000000e+00  -3.2111000340378075e-15 3.8408151825041615e-14 0.0000000000000000e+00  -1.6666564104609930e-15 3.1050264191672659e-14 0.0000000000000000e+00  -1.9941168742226004e-16 3.1686327492405665e-14 0.0000000000000000e+00  0.0000000000000000e+00 3.3142727560407878e-14 0.0000000000000000e+00  0.0000000000000000e+00 3.6433629531958216e-03 0.0000000000000000e+00  -6.0350853098500692e-15 3.6433629532142361e-03 0.0000000000000000e+00  -5.8833326692524001e-15 3.6433629532478932e-03 0.0000000000000000e+00  -2.1905684867794879e-15 3.6433629532659196e-03 0.0000000000000000e+00  -8.0162998558808276e-17 3.6433629532631275e-03 0.0000000000000000e+00  -4.3974088993845323e-16 3.6433629532555073e-03 0.0000000000000000e+00  3.1742282618613582e-16 3.6433629532460097e-03 0.0000000000000000e+00  5.7624632910005734e-16 3.6433629532340978e-03 0.0000000000000000e+00  -7.1600776691840005e-16 3.6433629532267673e-03 0.0000000000000000e+00  -1.1582322170631729e-15 3.6433629532272899e-03 0.0000000000000000e+00  0.0000000000000000e+00 3.6433629532286807e-03 0.0000000000000000e+00  </DataArray> 
</PointData> 
</Piece>
</UnstructuredGrid>
</VTKFile>