<?xml version="1.0"?>
<VTKFile type="UnstructuredGrid"  version="0.1"  >
<UnstructuredGrid>
<Piece  NumberOfPoints="22" NumberOfCells="20">
<Points>
<DataArray  type="Float64"  NumberOfComponents="3"  format="ascii">0 0 0  3.14159 0 0  6.28318 0 0  9.424770000000001 0 0  12.56636 0 0  15.70795 0 0  18.84954 0 0  21.99113 0 0  25.13272 0 0  28.27431 0 0  31.4159 0 0  0 1 0  3.14159 1 0  6.28318 1 0  9.424770000000001 1 0  12.56636 1 0  15.70795 1 0  18.84954 1 0  21.99113 1 0  25.13272 1 0  28.27431 1 0  31.4159 1 0  </DataArray>
</Points>
<Cells>
<DataArray  type="UInt32"  Name="connectivity"  format="ascii">0 1 12  0 11 12  1 2 13  1 12 13  2 3 14  2 13 14  3 4 15  3 14 15  4 5 16  4 15 16  5 6 17  5 16 17  6 7 18  6 17 18  7 8 19  7 18 19  8 9 20  8 19 20  9 10 21  9 20 21  </DataArray>
<DataArray  type="UInt32"  Name="offsets"  format="ascii">3 6 9 12 15 18 21 24 27 30 33 36 39 42 45 48 51 54 57 60 </DataArray>
<DataArray  type="UInt8"  Name="types"  format="ascii">5 5 5 5 5 5 5 5 5 5 5 5 5 5 5 5 5 5 5 5 </DataArray>
</Cells>
<PointData  Vectors="f_5"> 
<DataArray  type="Float64"  Name="f_5"  NumberOfComponents="3" format="ascii">0.0000000000000000e+00 0.0000000000000000e+00 0.0000000000000000e+00  8.6151448718433444e-15 3.0485008786457310e-14 0.0000000000000000e+00  1.1465228151111404e-14 1.0529503539505779e-13 0.0000000000000000e+00  1.4172206352382108e-15 1.5912093486475324e-13 0.0000000000000000e+00  -9.0427256054666405e-15 1.4607154452925643e-13 0.0000000000000000e+00  -1.0383169416048917e-14 9.6605054379540367e-14 0.0000000000000000e+00  -3.4607939891940224e-15 6.5295268223330173e-14 0.0000000000000000e+00  5.7807178829620703e-15 8.6966028992240180e-14 0.0000000000000000e+00  7.4177257426647728e-15 1.4193488883920864e-13 0.0000000000000000e+00  3.5354370640925239e-15 1.8414506997636307e-13 0.0000000000000000e+00  0.0000000000000000e+00 1.9683990445244565e-13 0.0000000000000000e+00  0.0000000000000000e+00 4.7885349664377064e-03 0.0000000000000000e+00  -1.0497159856439976e-14 4.7885349664683217e-03 0.0000000000000000e+00  -1.4326817962371637e-14 4.7885349665432626e-03 0.0000000000000000e+00  -5.2690406601335565e-15 4.7885349665968283e-03 0.0000000000000000e+00  4.5037062663222404e-15 4.7885349665835438e-03 0.0000000000000000e+00  5.8329219917451904e-15 4.7885349665341519e-03 0.0000000000000000e+00  -1.0519108987420755e-15 4.7885349665026996e-03 0.0000000000000000e+00  -9.5952366409214754e-15 4.7885349665247974e-03 0.0000000000000000e+00  -1.0400230644521078e-14 4.7885349665794915e-03 0.0000000000000000e+00  -5.0227655196247036e-15 4.7885349666215039e-03 0.0000000000000000e+00  0.0000000000000000e+00 4.7885349666342714e-03 0.0000000000000000e+00  </DataArray> 
</PointData> 
</Piece>
</UnstructuredGrid>
</VTKFile>