<?xml version="1.0"?>
<VTKFile type="UnstructuredGrid"  version="0.1"  >
<UnstructuredGrid>
<Piece  NumberOfPoints="22" NumberOfCells="20">
<Points>
<DataArray  type="Float64"  NumberOfComponents="3"  format="ascii">0 0 0  3.14159 0 0  6.28318 0 0  9.424770000000001 0 0  12.56636 0 0  15.70795 0 0  18.84954 0 0  21.99113 0 0  25.13272 0 0  28.27431 0 0  31.4159 0 0  0 1 0  3.14159 1 0  6.28318 1 0  9.424770000000001 1 0  12.56636 1 0  15.70795 1 0  18.84954 1 0  21.99113 1 0  25.13272 1 0  28.27431 1 0  31.4159 1 0  </DataArray>
</Points>
<Cells>
<DataArray  type="UInt32"  Name="connectivity"  format="ascii">0 1 12  0 11 12  1 2 13  1 12 13  2 3 14  2 13 14  3 4 15  3 14 15  4 5 16  4 15 16  5 6 17  5 16 17  6 7 18  6 17 18  7 8 19  7 18 19  8 9 20  8 19 20  9 10 21  9 20 21  </DataArray>
<DataArray  type="UInt32"  Name="offsets"  format="ascii">3 6 9 12 15 18 21 24 27 30 33 36 39 42 45 48 51 54 57 60 </DataArray>
<DataArray  type="UInt8"  Name="types"  format="ascii">5 5 5 5 5 5 5 5 5 5 5 5 5 5 5 5 5 5 5 5 </DataArray>
</Cells>
<PointData  Vectors="f_5"> 
<DataArray  type="Float64"  Name="f_5"  NumberOfComponents="3" format="ascii">0.0000000000000000e+00 0.0000000000000000e+00 0.0000000000000000e+00  -1.8652214880405323e-14 -5.8666629848362284e-14 0.0000000000000000e+00  -2.2690062590361584e-14 -1.8810623186448426e-13 0.0000000000000000e+00  -9.8905884846878398e-15 -2.8441840789028532e-13 0.0000000000000000e+00  6.9081090099127373e-15 -2.8074359991924945e-13 0.0000000000000000e+00  1.3301239259658048e-14 -1.9763180272323144e-13 0.0000000000000000e+00  3.0629584211495576e-15 -1.2950174318014168e-13 0.0000000000000000e+00  -1.0855480813843102e-14 -1.4171132622919450e-13 0.0000000000000000e+00  -1.9335111205039356e-14 -2.2953078288480513e-13 0.0000000000000000e+00  -1.5356719829346049e-14 -3.3554632563683226e-13 0.0000000000000000e+00  0.0000000000000000e+00 -3.8236468380220199e-13 0.0000000000000000e+00  0.0000000000000000e+00 4.8382954485759831e-03 0.0000000000000000e+00  1.7182008566399543e-14 4.8382954485172809e-03 0.0000000000000000e+00  2.0163226949690830e-14 4.8382954483877985e-03 0.0000000000000000e+00  6.2516715104809289e-15 4.8382954482916836e-03 0.0000000000000000e+00  -1.1037678240492884e-14 4.8382954482957333e-03 0.0000000000000000e+00  -1.7677754265799763e-14 4.8382954483789081e-03 0.0000000000000000e+00  -7.2227677062301868e-15 4.8382954484466932e-03 0.0000000000000000e+00  7.3809215185396171e-15 4.8382954484342718e-03 0.0000000000000000e+00  1.6360675477628480e-14 4.8382954483462528e-03 0.0000000000000000e+00  1.3524131075261650e-14 4.8382954482403158e-03 0.0000000000000000e+00  0.0000000000000000e+00 4.8382954481936196e-03 0.0000000000000000e+00  </DataArray> 
</PointData> 
</Piece>
</UnstructuredGrid>
</VTKFile>