<?xml version="1.0"?>
<VTKFile type="UnstructuredGrid"  version="0.1"  >
<UnstructuredGrid>
<Piece  NumberOfPoints="22" NumberOfCells="20">
<Points>
<DataArray  type="Float64"  NumberOfComponents="3"  format="ascii">0 0 0  3.14159 0 0  6.28318 0 0  9.424770000000001 0 0  12.56636 0 0  15.70795 0 0  18.84954 0 0  21.99113 0 0  25.13272 0 0  28.27431 0 0  31.4159 0 0  0 1 0  3.14159 1 0  6.28318 1 0  9.424770000000001 1 0  12.56636 1 0  15.70795 1 0  18.84954 1 0  21.99113 1 0  25.13272 1 0  28.27431 1 0  31.4159 1 0  </DataArray>
</Points>
<Cells>
<DataArray  type="UInt32"  Name="connectivity"  format="ascii">0 1 12  0 11 12  1 2 13  1 12 13  2 3 14  2 13 14  3 4 15  3 14 15  4 5 16  4 15 16  5 6 17  5 16 17  6 7 18  6 17 18  7 8 19  7 18 19  8 9 20  8 19 20  9 10 21  9 20 21  </DataArray>
<DataArray  type="UInt32"  Name="offsets"  format="ascii">3 6 9 12 15 18 21 24 27 30 33 36 39 42 45 48 51 54 57 60 </DataArray>
<DataArray  type="UInt8"  Name="types"  format="ascii">5 5 5 5 5 5 5 5 5 5 5 5 5 5 5 5 5 5 5 5 </DataArray>
</Cells>
<PointData  Vectors="f_5"> 
<DataArray  type="Float64"  Name="f_5"  NumberOfComponents="3" format="ascii">0.0000000000000000e+00 0.0000000000000000e+00 0.0000000000000000e+00  -4.7646716485996061e-15 -1.3997115014880267e-14 0.0000000000000000e+00  -5.6313442363938531e-15 -4.4373786558943221e-14 0.0000000000000000e+00  1.2261512544967842e-16 -5.6236554896375892e-14 0.0000000000000000e+00  6.0057706691099318e-15 -2.7198864843386229e-14 0.0000000000000000e+00  5.4130527690659668e-15 1.8930624798049837e-14 0.0000000000000000e+00  -1.2129552116125449e-15 4.1206329947046746e-14 0.0000000000000000e+00  -1.0034544777243635e-14 1.1768596067269499e-14 0.0000000000000000e+00  -1.3740642548010726e-14 -5.9782130829467962e-14 0.0000000000000000e+00  -1.0145518233090944e-14 -1.3473654057453041e-13 0.0000000000000000e+00  0.0000000000000000e+00 -1.6698377595289563e-13 0.0000000000000000e+00  0.0000000000000000e+00 2.6963648084100452e-03 0.0000000000000000e+00  3.7257507618442465e-15 2.6963648083959987e-03 0.0000000000000000e+00  3.7676793584348280e-15 2.6963648083656766e-03 0.0000000000000000e+00  -2.4836949747192943e-15 2.6963648083540089e-03 0.0000000000000000e+00  -8.6666112682667073e-15 2.6963648083830091e-03 0.0000000000000000e+00  -7.8920627238644081e-15 2.6963648084290977e-03 0.0000000000000000e+00  -1.1465610126434264e-15 2.6963648084513282e-03 0.0000000000000000e+00  8.2270403139448043e-15 2.6963648084216631e-03 0.0000000000000000e+00  1.2432559574994189e-14 2.6963648083500246e-03 0.0000000000000000e+00  9.5122202966007886e-15 2.6963648082750941e-03 0.0000000000000000e+00  0.0000000000000000e+00 2.6963648082429415e-03 0.0000000000000000e+00  </DataArray> 
</PointData> 
</Piece>
</UnstructuredGrid>
</VTKFile>