<?xml version="1.0"?>
<VTKFile type="UnstructuredGrid"  version="0.1"  >
<UnstructuredGrid>
<Piece  NumberOfPoints="22" NumberOfCells="20">
<Points>
<DataArray  type="Float64"  NumberOfComponents="3"  format="ascii">0 0 0  3.14159 0 0  6.28318 0 0  9.424770000000001 0 0  12.56636 0 0  15.70795 0 0  18.84954 0 0  21.99113 0 0  25.13272 0 0  28.27431 0 0  31.4159 0 0  0 1 0  3.14159 1 0  6.28318 1 0  9.424770000000001 1 0  12.56636 1 0  15.70795 1 0  18.84954 1 0  21.99113 1 0  25.13272 1 0  28.27431 1 0  31.4159 1 0  </DataArray>
</Points>
<Cells>
<DataArray  type="UInt32"  Name="connectivity"  format="ascii">0 1 12  0 11 12  1 2 13  1 12 13  2 3 14  2 13 14  3 4 15  3 14 15  4 5 16  4 15 16  5 6 17  5 16 17  6 7 18  6 17 18  7 8 19  7 18 19  8 9 20  8 19 20  9 10 21  9 20 21  </DataArray>
<DataArray  type="UInt32"  Name="offsets"  format="ascii">3 6 9 12 15 18 21 24 27 30 33 36 39 42 45 48 51 54 57 60 </DataArray>
<DataArray  type="UInt8"  Name="types"  format="ascii">5 5 5 5 5 5 5 5 5 5 5 5 5 5 5 5 5 5 5 5 </DataArray>
</Cells>
<PointData  Vectors="f_5"> 
<DataArray  type="Float64"  Name="f_5"  NumberOfComponents="3" format="ascii">0.0000000000000000e+00 0.0000000000000000e+00 0.0000000000000000e+00  3.3181540143840757e-16 3.0480040534015922e-15 0.0000000000000000e+00  -5.7737233123377148e-17 8.1995752668256189e-15 0.0000000000000000e+00  7.8258737977192753e-17 1.5830817681545358e-14 0.0000000000000000e+00  -3.6589658049318431e-16 2.4757435146352076e-14 0.0000000000000000e+00  -3.2010245035321291e-15 2.5206284953803290e-14 0.0000000000000000e+00  -5.7175324243416569e-15 6.4609625314893697e-15 0.0000000000000000e+00  -5.2572095339917499e-15 -1.8667430493038103e-14 0.0000000000000000e+00  -4.9509434644025729e-15 -4.3464546620507980e-14 0.0000000000000000e+00  -2.5803866281160033e-15 -6.1755244982798652e-14 0.0000000000000000e+00  0.0000000000000000e+00 -6.6957830684793351e-14 0.0000000000000000e+00  0.0000000000000000e+00 3.1948963187564102e-03 0.0000000000000000e+00  -1.3467641350493847e-15 3.1948963187593111e-03 0.0000000000000000e+00  -1.8213206021004539e-15 3.1948963187645690e-03 0.0000000000000000e+00  -2.7057955032880428e-15 3.1948963187721727e-03 0.0000000000000000e+00  -2.9133169327324709e-15 3.1948963187811382e-03 0.0000000000000000e+00  -6.1919315529684750e-17 3.1948963187814288e-03 0.0000000000000000e+00  2.4916467539573156e-15 3.1948963187627150e-03 0.0000000000000000e+00  2.5563226817841237e-15 3.1948963187374674e-03 0.0000000000000000e+00  2.8060387087094271e-15 3.1948963187126492e-03 0.0000000000000000e+00  1.2865072781613409e-15 3.1948963186944476e-03 0.0000000000000000e+00  0.0000000000000000e+00 3.1948963186894104e-03 0.0000000000000000e+00  </DataArray> 
</PointData> 
</Piece>
</UnstructuredGrid>
</VTKFile>