<?xml version="1.0"?>
<VTKFile type="UnstructuredGrid"  version="0.1"  >
<UnstructuredGrid>
<Piece  NumberOfPoints="22" NumberOfCells="20">
<Points>
<DataArray  type="Float64"  NumberOfComponents="3"  format="ascii">0 0 0  3.14159 0 0  6.28318 0 0  9.424770000000001 0 0  12.56636 0 0  15.70795 0 0  18.84954 0 0  21.99113 0 0  25.13272 0 0  28.27431 0 0  31.4159 0 0  0 1 0  3.14159 1 0  6.28318 1 0  9.424770000000001 1 0  12.56636 1 0  15.70795 1 0  18.84954 1 0  21.99113 1 0  25.13272 1 0  28.27431 1 0  31.4159 1 0  </DataArray>
</Points>
<Cells>
<DataArray  type="UInt32"  Name="connectivity"  format="ascii">0 1 12  0 11 12  1 2 13  1 12 13  2 3 14  2 13 14  3 4 15  3 14 15  4 5 16  4 15 16  5 6 17  5 16 17  6 7 18  6 17 18  7 8 19  7 18 19  8 9 20  8 19 20  9 10 21  9 20 21  </DataArray>
<DataArray  type="UInt32"  Name="offsets"  format="ascii">3 6 9 12 15 18 21 24 27 30 33 36 39 42 45 48 51 54 57 60 </DataArray>
<DataArray  type="UInt8"  Name="types"  format="ascii">5 5 5 5 5 5 5 5 5 5 5 5 5 5 5 5 5 5 5 5 </DataArray>
</Cells>
<PointData  Vectors="f_5"> 
<DataArray  type="Float64"  Name="f_5"  NumberOfComponents="3" format="ascii">0.0000000000000000e+00 0.0000000000000000e+00 0.0000000000000000e+00  -6.6990842615069547e-15 -1.9923456247870359e-14 0.0000000000000000e+00  -1.2450233034865919e-14 -8.0379968986229978e-14 0.0000000000000000e+00  -1.4363370935943479e-14 -1.6094688538117409e-13 0.0000000000000000e+00  -1.2504430209903872e-14 -2.4336963314214636e-13 0.0000000000000000e+00  -5.4615189054799176e-15 -2.9696141831409035e-13 0.0000000000000000e+00  4.3692565592551127e-15 -2.9709572189711302e-13 0.0000000000000000e+00  1.6067952894198900e-14 -2.2765264872881925e-13 0.0000000000000000e+00  1.9937263791564643e-14 -1.0597403696352330e-13 0.0000000000000000e+00  1.3776527942124601e-14 6.2345176174387325e-15 0.0000000000000000e+00  0.0000000000000000e+00 5.2631812183849677e-14 0.0000000000000000e+00  0.0000000000000000e+00 1.7484714238401404e-03 0.0000000000000000e+00  6.5019423716685415e-15 1.7484714238201751e-03 0.0000000000000000e+00  1.1692965139533056e-14 1.7484714237596577e-03 0.0000000000000000e+00  1.3088002126328385e-14 1.7484714236789185e-03 0.0000000000000000e+00  1.1085372047824857e-14 1.7484714235964213e-03 0.0000000000000000e+00  4.0659052886173366e-15 1.7484714235429864e-03 0.0000000000000000e+00  -5.7517140087070757e-15 1.7484714235427991e-03 0.0000000000000000e+00  -1.7483305884441290e-14 1.7484714236124630e-03 0.0000000000000000e+00  -2.1393257551075558e-14 1.7484714237341959e-03 0.0000000000000000e+00  -1.4547368912982207e-14 1.7484714238464314e-03 0.0000000000000000e+00  0.0000000000000000e+00 1.7484714238926444e-03 0.0000000000000000e+00  </DataArray> 
</PointData> 
</Piece>
</UnstructuredGrid>
</VTKFile>