<?xml version="1.0"?>
<VTKFile type="UnstructuredGrid"  version="0.1"  >
<UnstructuredGrid>
<Piece  NumberOfPoints="22" NumberOfCells="20">
<Points>
<DataArray  type="Float64"  NumberOfComponents="3"  format="ascii">0 0 0  3.14159 0 0  6.28318 0 0  9.424770000000001 0 0  12.56636 0 0  15.70795 0 0  18.84954 0 0  21.99113 0 0  25.13272 0 0  28.27431 0 0  31.4159 0 0  0 1 0  3.14159 1 0  6.28318 1 0  9.424770000000001 1 0  12.56636 1 0  15.70795 1 0  18.84954 1 0  21.99113 1 0  25.13272 1 0  28.27431 1 0  31.4159 1 0  </DataArray>
</Points>
<Cells>
<DataArray  type="UInt32"  Name="connectivity"  format="ascii">0 1 12  0 11 12  1 2 13  1 12 13  2 3 14  2 13 14  3 4 15  3 14 15  4 5 16  4 15 16  5 6 17  5 16 17  6 7 18  6 17 18  7 8 19  7 18 19  8 9 20  8 19 20  9 10 21  9 20 21  </DataArray>
<DataArray  type="UInt32"  Name="offsets"  format="ascii">3 6 9 12 15 18 21 24 27 30 33 36 39 42 45 48 51 54 57 60 </DataArray>
<DataArray  type="UInt8"  Name="types"  format="ascii">5 5 5 5 5 5 5 5 5 5 5 5 5 5 5 5 5 5 5 5 </DataArray>
</Cells>
<PointData  Vectors="f_5"> 
<DataArray  type="Float64"  Name="f_5"  NumberOfComponents="3" format="ascii">0.0000000000000000e+00 0.0000000000000000e+00 0.0000000000000000e+00  -1.8422383912714382e-14 -5.9078342515558790e-14 0.0000000000000000e+00  -2.1448040092258582e-14 -1.8378623873209988e-13 0.0000000000000000e+00  -8.3715209794603251e-15 -2.7189046849011063e-13 0.0000000000000000e+00  1.0761443874312636e-14 -2.5278854588352412e-13 0.0000000000000000e+00  1.9654230159845868e-14 -1.4074214822468875e-13 0.0000000000000000e+00  1.0515947339661462e-14 -2.9493865660501536e-14 0.0000000000000000e+00  -6.3768941637288865e-15 -6.6022804117969395e-15 0.0000000000000000e+00  -1.6927163156467162e-14 -7.6365560183785909e-14 0.0000000000000000e+00  -1.3689403465855437e-14 -1.7007426837342657e-13 0.0000000000000000e+00  0.0000000000000000e+00 -2.1358183767015226e-13 0.0000000000000000e+00  0.0000000000000000e+00 3.9422294136251127e-03 0.0000000000000000e+00  1.7087746456821722e-14 3.9422294135657964e-03 0.0000000000000000e+00  1.8789388921004420e-14 3.9422294134410975e-03 0.0000000000000000e+00  4.8598106940717957e-15 3.9422294133530898e-03 0.0000000000000000e+00  -1.4368509825008585e-14 3.9422294133725552e-03 0.0000000000000000e+00  -2.3073101004667393e-14 3.9422294134848317e-03 0.0000000000000000e+00  -1.3986135161236701e-14 3.9422294135959173e-03 0.0000000000000000e+00  3.6154481342876029e-15 3.9422294136183811e-03 0.0000000000000000e+00  1.4551502101541033e-14 3.9422294135484535e-03 0.0000000000000000e+00  1.2085772069575544e-14 3.9422294134547984e-03 0.0000000000000000e+00  0.0000000000000000e+00 3.9422294134114225e-03 0.0000000000000000e+00  </DataArray> 
</PointData> 
</Piece>
</UnstructuredGrid>
</VTKFile>