<?xml version="1.0"?>
<VTKFile type="UnstructuredGrid"  version="0.1"  >
<UnstructuredGrid>
<Piece  NumberOfPoints="22" NumberOfCells="20">
<Points>
<DataArray  type="Float64"  NumberOfComponents="3"  format="ascii">0 0 0  3.14159 0 0  6.28318 0 0  9.424770000000001 0 0  12.56636 0 0  15.70795 0 0  18.84954 0 0  21.99113 0 0  25.13272 0 0  28.27431 0 0  31.4159 0 0  0 1 0  3.14159 1 0  6.28318 1 0  9.424770000000001 1 0  12.56636 1 0  15.70795 1 0  18.84954 1 0  21.99113 1 0  25.13272 1 0  28.27431 1 0  31.4159 1 0  </DataArray>
</Points>
<Cells>
<DataArray  type="UInt32"  Name="connectivity"  format="ascii">0 1 12  0 11 12  1 2 13  1 12 13  2 3 14  2 13 14  3 4 15  3 14 15  4 5 16  4 15 16  5 6 17  5 16 17  6 7 18  6 17 18  7 8 19  7 18 19  8 9 20  8 19 20  9 10 21  9 20 21  </DataArray>
<DataArray  type="UInt32"  Name="offsets"  format="ascii">3 6 9 12 15 18 21 24 27 30 33 36 39 42 45 48 51 54 57 60 </DataArray>
<DataArray  type="UInt8"  Name="types"  format="ascii">5 5 5 5 5 5 5 5 5 5 5 5 5 5 5 5 5 5 5 5 </DataArray>
</Cells>
<PointData  Vectors="f_5"> 
<DataArray  type="Float64"  Name="f_5"  NumberOfComponents="3" format="ascii">0.0000000000000000e+00 0.0000000000000000e+00 0.0000000000000000e+00  1.8843328789047174e-15 7.3270519884876285e-15 0.0000000000000000e+00  -3.9019182599968221e-16 1.4976192564411620e-14 0.0000000000000000e+00  -6.3933852039498183e-15 -4.4374087790463562e-15 0.0000000000000000e+00  -1.2414804889808994e-14 -6.3077152197634095e-14 0.0000000000000000e+00  -1.7401203061565285e-14 -1.5560895966389685e-13 0.0000000000000000e+00  -2.0389527667313557e-14 -2.7298713326823021e-13 0.0000000000000000e+00  -2.1943387909146045e-14 -4.0594578556831183e-13 0.0000000000000000e+00  -1.8407129744605900e-14 -5.3465642915480081e-13 0.0000000000000000e+00  -9.8416142481635336e-15 -6.2407551496899189e-13 0.0000000000000000e+00  0.0000000000000000e+00 -6.5510420900370699e-13 0.0000000000000000e+00  0.0000000000000000e+00 7.4971896074008614e-04 0.0000000000000000e+00  -2.1838651397751571e-15 7.4971896074749785e-04 0.0000000000000000e+00  -4.8043588316035223e-17 7.4971896075507155e-04 0.0000000000000000e+00  6.0823282439067531e-15 7.4971896073549801e-04 0.0000000000000000e+00  1.1969051118115637e-14 7.4971896067687921e-04 0.0000000000000000e+00  1.6881883465796182e-14 7.4971896058436283e-04 0.0000000000000000e+00  1.9930742520938791e-14 7.4971896046705671e-04 0.0000000000000000e+00  2.1688913142025792e-14 7.4971896033392135e-04 0.0000000000000000e+00  1.8493499993700759e-14 7.4971896020520519e-04 0.0000000000000000e+00  9.7708672679667401e-15 7.4971896011586281e-04 0.0000000000000000e+00  0.0000000000000000e+00 7.4971896008502301e-04 0.0000000000000000e+00  </DataArray> 
</PointData> 
</Piece>
</UnstructuredGrid>
</VTKFile>