<?xml version="1.0"?>
<VTKFile type="UnstructuredGrid"  version="0.1"  >
<UnstructuredGrid>
<Piece  NumberOfPoints="22" NumberOfCells="20">
<Points>
<DataArray  type="Float64"  NumberOfComponents="3"  format="ascii">0 0 0  3.14159 0 0  6.28318 0 0  9.424770000000001 0 0  12.56636 0 0  15.70795 0 0  18.84954 0 0  21.99113 0 0  25.13272 0 0  28.27431 0 0  31.4159 0 0  0 1 0  3.14159 1 0  6.28318 1 0  9.424770000000001 1 0  12.56636 1 0  15.70795 1 0  18.84954 1 0  21.99113 1 0  25.13272 1 0  28.27431 1 0  31.4159 1 0  </DataArray>
</Points>
<Cells>
<DataArray  type="UInt32"  Name="connectivity"  format="ascii">0 1 12  0 11 12  1 2 13  1 12 13  2 3 14  2 13 14  3 4 15  3 14 15  4 5 16  4 15 16  5 6 17  5 16 17  6 7 18  6 17 18  7 8 19  7 18 19  8 9 20  8 19 20  9 10 21  9 20 21  </DataArray>
<DataArray  type="UInt32"  Name="offsets"  format="ascii">3 6 9 12 15 18 21 24 27 30 33 36 39 42 45 48 51 54 57 60 </DataArray>
<DataArray  type="UInt8"  Name="types"  format="ascii">5 5 5 5 5 5 5 5 5 5 5 5 5 5 5 5 5 5 5 5 </DataArray>
</Cells>
<PointData  Vectors="f_5"> 
<DataArray  type="Float64"  Name="f_5"  NumberOfComponents="3" format="ascii">0.0000000000000000e+00 0.0000000000000000e+00 0.0000000000000000e+00  4.6958794721676101e-15 1.8023676031596595e-14 0.0000000000000000e+00  5.6655488424214426e-15 5.8742351536803990e-14 0.0000000000000000e+00  -1.3833866948957635e-15 8.2965722712869315e-14 0.0000000000000000e+00  -1.1169524130664701e-14 5.3525835359865899e-14 0.0000000000000000e+00  -1.4149200003944122e-14 -1.7687403715542389e-14 0.0000000000000000e+00  -7.9015864804811023e-15 -7.8293086976433550e-14 0.0000000000000000e+00  3.0466160725175933e-15 -8.3479109918329707e-14 0.0000000000000000e+00  1.1517083782975358e-14 -2.7413198621795329e-14 0.0000000000000000e+00  1.0536664680108525e-14 5.1632380107689059e-14 0.0000000000000000e+00  0.0000000000000000e+00 8.9351535970132382e-14 0.0000000000000000e+00  0.0000000000000000e+00 4.1414243023739977e-03 0.0000000000000000e+00  -6.1437072878607539e-15 4.1414243023921394e-03 0.0000000000000000e+00  -8.0035564920889093e-15 4.1414243024328170e-03 0.0000000000000000e+00  -1.6463933848000791e-15 4.1414243024567934e-03 0.0000000000000000e+00  7.7551216387150854e-15 4.1414243024271219e-03 0.0000000000000000e+00  1.0486658395089142e-14 4.1414243023559748e-03 0.0000000000000000e+00  4.4180599891773039e-15 4.1414243022954685e-03 0.0000000000000000e+00  -6.0517566931302199e-15 4.1414243022903554e-03 0.0000000000000000e+00  -1.3789329163932618e-14 4.1414243023465604e-03 0.0000000000000000e+00  -1.1863876537158910e-14 4.1414243024255146e-03 0.0000000000000000e+00  0.0000000000000000e+00 4.1414243024631790e-03 0.0000000000000000e+00  </DataArray> 
</PointData> 
</Piece>
</UnstructuredGrid>
</VTKFile>