<?xml version="1.0"?>
<VTKFile type="UnstructuredGrid"  version="0.1"  >
<UnstructuredGrid>
<Piece  NumberOfPoints="22" NumberOfCells="20">
<Points>
<DataArray  type="Float64"  NumberOfComponents="3"  format="ascii">0 0 0  3.14159 0 0  6.28318 0 0  9.424770000000001 0 0  12.56636 0 0  15.70795 0 0  18.84954 0 0  21.99113 0 0  25.13272 0 0  28.27431 0 0  31.4159 0 0  0 1 0  3.14159 1 0  6.28318 1 0  9.424770000000001 1 0  12.56636 1 0  15.70795 1 0  18.84954 1 0  21.99113 1 0  25.13272 1 0  28.27431 1 0  31.4159 1 0  </DataArray>
</Points>
<Cells>
<DataArray  type="UInt32"  Name="connectivity"  format="ascii">0 1 12  0 11 12  1 2 13  1 12 13  2 3 14  2 13 14  3 4 15  3 14 15  4 5 16  4 15 16  5 6 17  5 16 17  6 7 18  6 17 18  7 8 19  7 18 19  8 9 20  8 19 20  9 10 21  9 20 21  </DataArray>
<DataArray  type="UInt32"  Name="offsets"  format="ascii">3 6 9 12 15 18 21 24 27 30 33 36 39 42 45 48 51 54 57 60 </DataArray>
<DataArray  type="UInt8"  Name="types"  format="ascii">5 5 5 5 5 5 5 5 5 5 5 5 5 5 5 5 5 5 5 5 </DataArray>
</Cells>
<PointData  Vectors="f_5"> 
<DataArray  type="Float64"  Name="f_5"  NumberOfComponents="3" format="ascii">0.0000000000000000e+00 0.0000000000000000e+00 0.0000000000000000e+00  1.1420521981296555e-14 3.6301336141056458e-14 0.0000000000000000e+00  2.0458567177455316e-14 1.3795128799662310e-13 0.0000000000000000e+00  2.8953228247324951e-14 2.9476750914094610e-13 0.0000000000000000e+00  3.9353897314572438e-14 5.1220099848526241e-13 0.0000000000000000e+00  4.8493684279366857e-14 7.9389718025730781e-13 0.0000000000000000e+00  5.0120947269874395e-14 1.1099661373852349e-12 0.0000000000000000e+00  4.5203520540290761e-14 1.4151142936672554e-12 0.0000000000000000e+00  3.5807201976143792e-14 1.6728934931345651e-12 0.0000000000000000e+00  2.1091798801937379e-14 1.8548336652331431e-12 0.0000000000000000e+00  0.0000000000000000e+00 1.9235765502429146e-12 0.0000000000000000e+00  0.0000000000000000e+00 8.4963905673671831e-04 0.0000000000000000e+00  -1.1571658481712790e-14 8.4963905677297457e-04 0.0000000000000000e+00  -2.1043318263198979e-14 8.4963905687450046e-04 0.0000000000000000e+00  -2.9913253599067607e-14 8.4963905703134602e-04 0.0000000000000000e+00  -4.0483728709006957e-14 8.4963905724894648e-04 0.0000000000000000e+00  -4.9870890393123415e-14 8.4963905753070905e-04 0.0000000000000000e+00  -5.1360293419991401e-14 8.4963905784675648e-04 0.0000000000000000e+00  -4.6180493352037211e-14 8.4963905815175372e-04 0.0000000000000000e+00  -3.6183409121937880e-14 8.4963905840968129e-04 0.0000000000000000e+00  -2.1461614936391426e-14 8.4963905859155447e-04 0.0000000000000000e+00  0.0000000000000000e+00 8.4963905866024139e-04 0.0000000000000000e+00  </DataArray> 
</PointData> 
</Piece>
</UnstructuredGrid>
</VTKFile>