<?xml version="1.0"?>
<VTKFile type="UnstructuredGrid"  version="0.1"  >
<UnstructuredGrid>
<Piece  NumberOfPoints="22" NumberOfCells="20">
<Points>
<DataArray  type="Float64"  NumberOfComponents="3"  format="ascii">0 0 0  3.14159 0 0  6.28318 0 0  9.424770000000001 0 0  12.56636 0 0  15.70795 0 0  18.84954 0 0  21.99113 0 0  25.13272 0 0  28.27431 0 0  31.4159 0 0  0 1 0  3.14159 1 0  6.28318 1 0  9.424770000000001 1 0  12.56636 1 0  15.70795 1 0  18.84954 1 0  21.99113 1 0  25.13272 1 0  28.27431 1 0  31.4159 1 0  </DataArray>
</Points>
<Cells>
<DataArray  type="UInt32"  Name="connectivity"  format="ascii">0 1 12  0 11 12  1 2 13  1 12 13  2 3 14  2 13 14  3 4 15  3 14 15  4 5 16  4 15 16  5 6 17  5 16 17  6 7 18  6 17 18  7 8 19  7 18 19  8 9 20  8 19 20  9 10 21  9 20 21  </DataArray>
<DataArray  type="UInt32"  Name="offsets"  format="ascii">3 6 9 12 15 18 21 24 27 30 33 36 39 42 45 48 51 54 57 60 </DataArray>
<DataArray  type="UInt8"  Name="types"  format="ascii">5 5 5 5 5 5 5 5 5 5 5 5 5 5 5 5 5 5 5 5 </DataArray>
</Cells>
<PointData  Vectors="f_5"> 
<DataArray  type="Float64"  Name="f_5"  NumberOfComponents="3" format="ascii">0.0000000000000000e+00 0.0000000000000000e+00 0.0000000000000000e+00  -3.5826299023634072e-15 -8.6504517726270193e-15 0.0000000000000000e+00  -5.8224993381918034e-15 -3.3218848676429207e-14 0.0000000000000000e+00  -4.5764877038012280e-15 -5.8483420299673778e-14 0.0000000000000000e+00  -1.4906220786045636e-15 -6.7376551768235571e-14 0.0000000000000000e+00  -2.3824200349512884e-16 -6.0205943245220765e-14 0.0000000000000000e+00  -2.8512833036600648e-15 -5.7638883766036256e-14 0.0000000000000000e+00  -9.0274695295706925e-15 -8.5644719665208010e-14 0.0000000000000000e+00  -1.1636944378724310e-14 -1.4544895289126350e-13 0.0000000000000000e+00  -7.1188893703479398e-15 -2.0036082966236676e-13 0.0000000000000000e+00  0.0000000000000000e+00 -2.2068265556221502e-13 0.0000000000000000e+00  0.0000000000000000e+00 3.3942395688746864e-03 0.0000000000000000e+00  2.1551814872978281e-15 3.3942395688658740e-03 0.0000000000000000e+00  3.6523862028460130e-15 3.3942395688412838e-03 0.0000000000000000e+00  1.5124419094208682e-15 3.3942395688160484e-03 0.0000000000000000e+00  -1.9692830523905923e-15 3.3942395688072234e-03 0.0000000000000000e+00  -3.2188763758071489e-15 3.3942395688143605e-03 0.0000000000000000e+00  -2.2817674928536251e-16 3.3942395688168472e-03 0.0000000000000000e+00  6.2843884277222870e-15 3.3942395687887282e-03 0.0000000000000000e+00  9.5860183396281915e-15 3.3942395687289778e-03 0.0000000000000000e+00  6.0192760399022130e-15 3.3942395686740040e-03 0.0000000000000000e+00  0.0000000000000000e+00 3.3942395686537351e-03 0.0000000000000000e+00  </DataArray> 
</PointData> 
</Piece>
</UnstructuredGrid>
</VTKFile>