<?xml version="1.0"?>
<VTKFile type="UnstructuredGrid"  version="0.1"  >
<UnstructuredGrid>
<Piece  NumberOfPoints="22" NumberOfCells="20">
<Points>
<DataArray  type="Float64"  NumberOfComponents="3"  format="ascii">0 0 0  3.14159 0 0  6.28318 0 0  9.424770000000001 0 0  12.56636 0 0  15.70795 0 0  18.84954 0 0  21.99113 0 0  25.13272 0 0  28.27431 0 0  31.4159 0 0  0 1 0  3.14159 1 0  6.28318 1 0  9.424770000000001 1 0  12.56636 1 0  15.70795 1 0  18.84954 1 0  21.99113 1 0  25.13272 1 0  28.27431 1 0  31.4159 1 0  </DataArray>
</Points>
<Cells>
<DataArray  type="UInt32"  Name="connectivity"  format="ascii">0 1 12  0 11 12  1 2 13  1 12 13  2 3 14  2 13 14  3 4 15  3 14 15  4 5 16  4 15 16  5 6 17  5 16 17  6 7 18  6 17 18  7 8 19  7 18 19  8 9 20  8 19 20  9 10 21  9 20 21  </DataArray>
<DataArray  type="UInt32"  Name="offsets"  format="ascii">3 6 9 12 15 18 21 24 27 30 33 36 39 42 45 48 51 54 57 60 </DataArray>
<DataArray  type="UInt8"  Name="types"  format="ascii">5 5 5 5 5 5 5 5 5 5 5 5 5 5 5 5 5 5 5 5 </DataArray>
</Cells>
<PointData  Vectors="f_5"> 
<DataArray  type="Float64"  Name="f_5"  NumberOfComponents="3" format="ascii">0.0000000000000000e+00 0.0000000000000000e+00 0.0000000000000000e+00  -1.0617559285100599e-14 -3.3281189926881914e-14 0.0000000000000000e+00  -1.7946244230481260e-14 -1.2147310864219915e-13 0.0000000000000000e+00  -1.7675516233457585e-14 -2.3196944897445745e-13 0.0000000000000000e+00  -9.3645865024950535e-15 -3.1292867233994174e-13 0.0000000000000000e+00  9.4544212284514898e-16 -3.3305301254284133e-13 0.0000000000000000e+00  9.3148220589490162e-15 -2.9390893333588167e-13 0.0000000000000000e+00  1.5536889970261724e-14 -2.0786271236666914e-13 0.0000000000000000e+00  1.4744390415907507e-14 -1.0453291401149150e-13 0.0000000000000000e+00  7.1381809847103431e-15 -3.0955248007688477e-14 0.0000000000000000e+00  0.0000000000000000e+00 -7.5630795067162851e-15 0.0000000000000000e+00  0.0000000000000000e+00 1.9980039900276839e-03 0.0000000000000000e+00  9.9503446076620678e-15 1.9980039899946136e-03 0.0000000000000000e+00  1.6640069912515161e-14 1.9980039899062971e-03 0.0000000000000000e+00  1.6153425955895236e-14 1.9980039897957800e-03 0.0000000000000000e+00  7.4771764320678084e-15 1.9980039897149323e-03 0.0000000000000000e+00  -3.0342905017500214e-15 1.9980039896948312e-03 0.0000000000000000e+00  -1.1439044805168411e-14 1.9980039897340030e-03 0.0000000000000000e+00  -1.7294451363869370e-14 1.9980039898201594e-03 0.0000000000000000e+00  -1.6263732063087641e-14 1.9980039899234183e-03 0.0000000000000000e+00  -8.0416448524589995e-15 1.9980039899967889e-03 0.0000000000000000e+00  0.0000000000000000e+00 1.9980039900202484e-03 0.0000000000000000e+00  </DataArray> 
</PointData> 
</Piece>
</UnstructuredGrid>
</VTKFile>