<?xml version="1.0"?>
<VTKFile type="UnstructuredGrid"  version="0.1"  >
<UnstructuredGrid>
<Piece  NumberOfPoints="22" NumberOfCells="20">
<Points>
<DataArray  type="Float64"  NumberOfComponents="3"  format="ascii">0 0 0  3.14159 0 0  6.28318 0 0  9.424770000000001 0 0  12.56636 0 0  15.70795 0 0  18.84954 0 0  21.99113 0 0  25.13272 0 0  28.27431 0 0  31.4159 0 0  0 1 0  3.14159 1 0  6.28318 1 0  9.424770000000001 1 0  12.56636 1 0  15.70795 1 0  18.84954 1 0  21.99113 1 0  25.13272 1 0  28.27431 1 0  31.4159 1 0  </DataArray>
</Points>
<Cells>
<DataArray  type="UInt32"  Name="connectivity"  format="ascii">0 1 12  0 11 12  1 2 13  1 12 13  2 3 14  2 13 14  3 4 15  3 14 15  4 5 16  4 15 16  5 6 17  5 16 17  6 7 18  6 17 18  7 8 19  7 18 19  8 9 20  8 19 20  9 10 21  9 20 21  </DataArray>
<DataArray  type="UInt32"  Name="offsets"  format="ascii">3 6 9 12 15 18 21 24 27 30 33 36 39 42 45 48 51 54 57 60 </DataArray>
<DataArray  type="UInt8"  Name="types"  format="ascii">5 5 5 5 5 5 5 5 5 5 5 5 5 5 5 5 5 5 5 5 </DataArray>
</Cells>
<PointData  Vectors="f_5"> 
<DataArray  type="Float64"  Name="f_5"  NumberOfComponents="3" format="ascii">0.0000000000000000e+00 0.0000000000000000e+00 0.0000000000000000e+00  6.6358974561894501e-15 2.1638330095604786e-14 0.0000000000000000e+00  1.1115559671207027e-14 8.2879433832273944e-14 0.0000000000000000e+00  8.6932750692830083e-15 1.5228485018022741e-13 0.0000000000000000e+00  -5.0937437422418748e-16 1.8648169807220247e-13 0.0000000000000000e+00  -1.3857913995673995e-14 1.4823121316244337e-13 0.0000000000000000e+00  -1.9700982401017656e-14 4.7153015523365564e-14 0.0000000000000000e+00  -1.4341483297274211e-14 -5.4207297534526007e-14 0.0000000000000000e+00  -7.4220625185783331e-15 -1.1607987341097246e-13 0.0000000000000000e+00  -3.0989981262183073e-15 -1.4387673081981473e-13 0.0000000000000000e+00  0.0000000000000000e+00 -1.5034403759023027e-13 0.0000000000000000e+00  0.0000000000000000e+00 2.7462291128298954e-03 0.0000000000000000e+00  -7.4163413800473150e-15 2.7462291128517780e-03 0.0000000000000000e+00  -1.2454227051333673e-14 2.7462291129130298e-03 0.0000000000000000e+00  -1.0474374394699656e-14 2.7462291129825003e-03 0.0000000000000000e+00  -1.5358465972233663e-15 2.7462291130165560e-03 0.0000000000000000e+00  1.1347350070206170e-14 2.7462291129780390e-03 0.0000000000000000e+00  1.7262337952560700e-14 2.7462291128768656e-03 0.0000000000000000e+00  1.2048696632179660e-14 2.7462291127756363e-03 0.0000000000000000e+00  5.9297113720977385e-15 2.7462291127138163e-03 0.0000000000000000e+00  1.9305665331385655e-15 2.7462291126860647e-03 0.0000000000000000e+00  0.0000000000000000e+00 2.7462291126795621e-03 0.0000000000000000e+00  </DataArray> 
</PointData> 
</Piece>
</UnstructuredGrid>
</VTKFile>