<?xml version="1.0"?>
<VTKFile type="UnstructuredGrid"  version="0.1"  >
<UnstructuredGrid>
<Piece  NumberOfPoints="22" NumberOfCells="20">
<Points>
<DataArray  type="Float64"  NumberOfComponents="3"  format="ascii">0 0 0  3.14159 0 0  6.28318 0 0  9.424770000000001 0 0  12.56636 0 0  15.70795 0 0  18.84954 0 0  21.99113 0 0  25.13272 0 0  28.27431 0 0  31.4159 0 0  0 1 0  3.14159 1 0  6.28318 1 0  9.424770000000001 1 0  12.56636 1 0  15.70795 1 0  18.84954 1 0  21.99113 1 0  25.13272 1 0  28.27431 1 0  31.4159 1 0  </DataArray>
</Points>
<Cells>
<DataArray  type="UInt32"  Name="connectivity"  format="ascii">0 1 12  0 11 12  1 2 13  1 12 13  2 3 14  2 13 14  3 4 15  3 14 15  4 5 16  4 15 16  5 6 17  5 16 17  6 7 18  6 17 18  7 8 19  7 18 19  8 9 20  8 19 20  9 10 21  9 20 21  </DataArray>
<DataArray  type="UInt32"  Name="offsets"  format="ascii">3 6 9 12 15 18 21 24 27 30 33 36 39 42 45 48 51 54 57 60 </DataArray>
<DataArray  type="UInt8"  Name="types"  format="ascii">5 5 5 5 5 5 5 5 5 5 5 5 5 5 5 5 5 5 5 5 </DataArray>
</Cells>
<PointData  Vectors="f_5"> 
<DataArray  type="Float64"  Name="f_5"  NumberOfComponents="3" format="ascii">0.0000000000000000e+00 0.0000000000000000e+00 0.0000000000000000e+00  4.0302141627759310e-16 3.6994829208326626e-15 0.0000000000000000e+00  -3.1902697371805501e-16 8.9203311854338081e-15 0.0000000000000000e+00  -2.6520131885424881e-15 6.9772771393096964e-15 0.0000000000000000e+00  -4.6158124980935258e-15 -7.1863106788117298e-15 0.0000000000000000e+00  -5.1541600585521414e-15 -2.7843370250614619e-14 0.0000000000000000e+00  -4.4682489760961153e-15 -4.8351132742384258e-14 0.0000000000000000e+00  -2.6732147250754118e-15 -6.1712813580324264e-14 0.0000000000000000e+00  -1.1388423136248069e-15 -6.6194859751293262e-14 0.0000000000000000e+00  6.6196744227836879e-16 -6.3178415631207397e-14 0.0000000000000000e+00  0.0000000000000000e+00 -5.9211528589989863e-14 0.0000000000000000e+00  0.0000000000000000e+00 3.5935432235505139e-03 0.0000000000000000e+00  -1.4208646548320940e-15 3.5935432235540583e-03 0.0000000000000000e+00  -1.7223778253040126e-15 3.5935432235594447e-03 0.0000000000000000e+00  1.8579190137637203e-16 3.5935432235572429e-03 0.0000000000000000e+00  1.5421272387377107e-15 3.5935432235431356e-03 0.0000000000000000e+00  1.9727479856531499e-15 3.5935432235223073e-03 0.0000000000000000e+00  1.3324517467412167e-15 3.5935432235018779e-03 0.0000000000000000e+00  8.5675113845395900e-17 3.5935432234886419e-03 0.0000000000000000e+00  -7.2676552327653435e-16 3.5935432234839282e-03 0.0000000000000000e+00  -1.6232607503880566e-15 3.5935432234869831e-03 0.0000000000000000e+00  0.0000000000000000e+00 3.5935432234910358e-03 0.0000000000000000e+00  </DataArray> 
</PointData> 
</Piece>
</UnstructuredGrid>
</VTKFile>