<?xml version="1.0"?>
<VTKFile type="UnstructuredGrid"  version="0.1"  >
<UnstructuredGrid>
<Piece  NumberOfPoints="22" NumberOfCells="20">
<Points>
<DataArray  type="Float64"  NumberOfComponents="3"  format="ascii">0 0 0  3.14159 0 0  6.28318 0 0  9.424770000000001 0 0  12.56636 0 0  15.70795 0 0  18.84954 0 0  21.99113 0 0  25.13272 0 0  28.27431 0 0  31.4159 0 0  0 1 0  3.14159 1 0  6.28318 1 0  9.424770000000001 1 0  12.56636 1 0  15.70795 1 0  18.84954 1 0  21.99113 1 0  25.13272 1 0  28.27431 1 0  31.4159 1 0  </DataArray>
</Points>
<Cells>
<DataArray  type="UInt32"  Name="connectivity"  format="ascii">0 1 12  0 11 12  1 2 13  1 12 13  2 3 14  2 13 14  3 4 15  3 14 15  4 5 16  4 15 16  5 6 17  5 16 17  6 7 18  6 17 18  7 8 19  7 18 19  8 9 20  8 19 20  9 10 21  9 20 21  </DataArray>
<DataArray  type="UInt32"  Name="offsets"  format="ascii">3 6 9 12 15 18 21 24 27 30 33 36 39 42 45 48 51 54 57 60 </DataArray>
<DataArray  type="UInt8"  Name="types"  format="ascii">5 5 5 5 5 5 5 5 5 5 5 5 5 5 5 5 5 5 5 5 </DataArray>
</Cells>
<PointData  Vectors="f_5"> 
<DataArray  type="Float64"  Name="f_5"  NumberOfComponents="3" format="ascii">0.0000000000000000e+00 0.0000000000000000e+00 0.0000000000000000e+00  -1.0710595063804768e-13 -3.5250769965904115e-13 0.0000000000000000e+00  -1.2601150585347261e-13 -1.1166379516389467e-12 0.0000000000000000e+00  -4.1215520623224562e-14 -1.6575212391109739e-12 0.0000000000000000e+00  7.5169341871673537e-14 -1.5328936484362672e-12 0.0000000000000000e+00  1.2739739489157279e-13 -8.5187802654169116e-13 0.0000000000000000e+00  7.4540409027870140e-14 -1.7437511172271161e-13 0.0000000000000000e+00  -4.0818177795035739e-14 -5.2242142775174338e-14 0.0000000000000000e+00  -1.2474839372518923e-13 -5.8987382190006813e-13 0.0000000000000000e+00  -1.0767448967128139e-13 -1.3515603137634214e-12 0.0000000000000000e+00  0.0000000000000000e+00 -1.7066750150957894e-12 0.0000000000000000e+00  0.0000000000000000e+00 3.8426171467305773e-03 0.0000000000000000e+00  1.0618121858948167e-13 3.8426171463774822e-03 0.0000000000000000e+00  1.2334712373804995e-13 3.8426171456130628e-03 0.0000000000000000e+00  3.7370610854245976e-14 3.8426171450737989e-03 0.0000000000000000e+00  -7.9248499661715146e-14 3.8426171452004458e-03 0.0000000000000000e+00  -1.3118342860064472e-13 3.8426171458823249e-03 0.0000000000000000e+00  -7.7591034680650057e-14 3.8426171465587959e-03 0.0000000000000000e+00  3.8224409627738604e-14 3.8426171466789602e-03 0.0000000000000000e+00  1.2276037329341127e-13 3.8426171461396538e-03 0.0000000000000000e+00  1.0625093055803060e-13 3.8426171453782563e-03 0.0000000000000000e+00  0.0000000000000000e+00 3.8426171450238237e-03 0.0000000000000000e+00  </DataArray> 
</PointData> 
</Piece>
</UnstructuredGrid>
</VTKFile>