<?xml version="1.0"?>
<VTKFile type="UnstructuredGrid"  version="0.1"  >
<UnstructuredGrid>
<Piece  NumberOfPoints="22" NumberOfCells="20">
<Points>
<DataArray  type="Float64"  NumberOfComponents="3"  format="ascii">0 0 0  3.14159 0 0  6.28318 0 0  9.424770000000001 0 0  12.56636 0 0  15.70795 0 0  18.84954 0 0  21.99113 0 0  25.13272 0 0  28.27431 0 0  31.4159 0 0  0 1 0  3.14159 1 0  6.28318 1 0  9.424770000000001 1 0  12.56636 1 0  15.70795 1 0  18.84954 1 0  21.99113 1 0  25.13272 1 0  28.27431 1 0  31.4159 1 0  </DataArray>
</Points>
<Cells>
<DataArray  type="UInt32"  Name="connectivity"  format="ascii">0 1 12  0 11 12  1 2 13  1 12 13  2 3 14  2 13 14  3 4 15  3 14 15  4 5 16  4 15 16  5 6 17  5 16 17  6 7 18  6 17 18  7 8 19  7 18 19  8 9 20  8 19 20  9 10 21  9 20 21  </DataArray>
<DataArray  type="UInt32"  Name="offsets"  format="ascii">3 6 9 12 15 18 21 24 27 30 33 36 39 42 45 48 51 54 57 60 </DataArray>
<DataArray  type="UInt8"  Name="types"  format="ascii">5 5 5 5 5 5 5 5 5 5 5 5 5 5 5 5 5 5 5 5 </DataArray>
</Cells>
<PointData  Vectors="f_5"> 
<DataArray  type="Float64"  Name="f_5"  NumberOfComponents="3" format="ascii">0.0000000000000000e+00 0.0000000000000000e+00 0.0000000000000000e+00  -2.2794683775377927e-14 -7.3926419633259532e-14 0.0000000000000000e+00  -2.7661105019344648e-14 -2.3503853832206767e-13 0.0000000000000000e+00  -1.2606609944564672e-14 -3.5984886940757424e-13 0.0000000000000000e+00  9.4650863424158652e-15 -3.5932730384029368e-13 0.0000000000000000e+00  2.1393222636415818e-14 -2.4700177515852683e-13 0.0000000000000000e+00  1.4617907965311214e-14 -1.1637663980108165e-13 0.0000000000000000e+00  -7.7101692986258490e-15 -8.4115019209891949e-14 0.0000000000000000e+00  -2.5222332590161092e-14 -1.8624891283181546e-13 0.0000000000000000e+00  -2.2362141967173486e-14 -3.3934314500900125e-13 0.0000000000000000e+00  0.0000000000000000e+00 -4.1102268065107240e-13 0.0000000000000000e+00  0.0000000000000000e+00 3.3444074693391207e-03 0.0000000000000000e+00  2.1856619567185668e-14 3.3444074692651968e-03 0.0000000000000000e+00  2.5783362085464113e-14 3.3444074691040258e-03 0.0000000000000000e+00  9.9267412668425746e-15 3.3444074689795819e-03 0.0000000000000000e+00  -1.2546293386014675e-14 3.3444074689803201e-03 0.0000000000000000e+00  -2.4815618112438527e-14 3.3444074690928919e-03 0.0000000000000000e+00  -1.7665833120834420e-14 3.3444074692232841e-03 0.0000000000000000e+00  5.3427129120070229e-15 3.3444074692552256e-03 0.0000000000000000e+00  2.3683647871997103e-14 3.3444074691527490e-03 0.0000000000000000e+00  2.1177179742636352e-14 3.3444074689996696e-03 0.0000000000000000e+00  0.0000000000000000e+00 3.3444074689282402e-03 0.0000000000000000e+00  </DataArray> 
</PointData> 
</Piece>
</UnstructuredGrid>
</VTKFile>