<?xml version="1.0"?>
<VTKFile type="UnstructuredGrid"  version="0.1"  >
<UnstructuredGrid>
<Piece  NumberOfPoints="22" NumberOfCells="20">
<Points>
<DataArray  type="Float64"  NumberOfComponents="3"  format="ascii">0 0 0  3.14159 0 0  6.28318 0 0  9.424770000000001 0 0  12.56636 0 0  15.70795 0 0  18.84954 0 0  21.99113 0 0  25.13272 0 0  28.27431 0 0  31.4159 0 0  0 1 0  3.14159 1 0  6.28318 1 0  9.424770000000001 1 0  12.56636 1 0  15.70795 1 0  18.84954 1 0  21.99113 1 0  25.13272 1 0  28.27431 1 0  31.4159 1 0  </DataArray>
</Points>
<Cells>
<DataArray  type="UInt32"  Name="connectivity"  format="ascii">0 1 12  0 11 12  1 2 13  1 12 13  2 3 14  2 13 14  3 4 15  3 14 15  4 5 16  4 15 16  5 6 17  5 16 17  6 7 18  6 17 18  7 8 19  7 18 19  8 9 20  8 19 20  9 10 21  9 20 21  </DataArray>
<DataArray  type="UInt32"  Name="offsets"  format="ascii">3 6 9 12 15 18 21 24 27 30 33 36 39 42 45 48 51 54 57 60 </DataArray>
<DataArray  type="UInt8"  Name="types"  format="ascii">5 5 5 5 5 5 5 5 5 5 5 5 5 5 5 5 5 5 5 5 </DataArray>
</Cells>
<PointData  Vectors="f_5"> 
<DataArray  type="Float64"  Name="f_5"  NumberOfComponents="3" format="ascii">0.0000000000000000e+00 0.0000000000000000e+00 0.0000000000000000e+00  -2.2962921535446555e-13 -7.2459737748576525e-13 0.0000000000000000e+00  -4.3813971758233816e-13 -2.8328697185425124e-12 0.0000000000000000e+00  -6.0219658410124163e-13 -6.1169674318862290e-12 0.0000000000000000e+00  -7.0904070885277770e-13 -1.0256812253560085e-11 0.0000000000000000e+00  -7.4646678614708241e-13 -1.4851766658447960e-11 0.0000000000000000e+00  -7.1087696242816964e-13 -1.9454396129238543e-11 0.0000000000000000e+00  -6.0700618383891726e-13 -2.3616534178233060e-11 0.0000000000000000e+00  -4.4334640890151490e-13 -2.6934212578332288e-11 0.0000000000000000e+00  -2.3431714484396158e-13 -2.9076147626770244e-11 0.0000000000000000e+00  0.0000000000000000e+00 -2.9817742584802892e-11 0.0000000000000000e+00  0.0000000000000000e+00 4.4989879553665549e-04 0.0000000000000000e+00  2.2981462122223514e-13 4.4989879481178893e-04 0.0000000000000000e+00  4.3793028808920442e-13 4.4989879270294924e-04 0.0000000000000000e+00  6.0188835776896163e-13 4.4989878941843758e-04 0.0000000000000000e+00  7.0883611162511344e-13 4.4989878527841430e-04 0.0000000000000000e+00  7.4641319871657412e-13 4.4989878068333098e-04 0.0000000000000000e+00  7.1115745999818024e-13 4.4989877608080174e-04 0.0000000000000000e+00  6.0718591652891204e-13 4.4989877191892023e-04 0.0000000000000000e+00  4.4337184242519559e-13 4.4989876860165889e-04 0.0000000000000000e+00  2.3452299170455073e-13 4.4989876646008193e-04 0.0000000000000000e+00  0.0000000000000000e+00 4.4989876571883438e-04 0.0000000000000000e+00  </DataArray> 
</PointData> 
</Piece>
</UnstructuredGrid>
</VTKFile>