<?xml version="1.0"?>
<VTKFile type="UnstructuredGrid"  version="0.1"  >
<UnstructuredGrid>
<Piece  NumberOfPoints="22" NumberOfCells="20">
<Points>
<DataArray  type="Float64"  NumberOfComponents="3"  format="ascii">0 0 0  3.14159 0 0  6.28318 0 0  9.424770000000001 0 0  12.56636 0 0  15.70795 0 0  18.84954 0 0  21.99113 0 0  25.13272 0 0  28.27431 0 0  31.4159 0 0  0 1 0  3.14159 1 0  6.28318 1 0  9.424770000000001 1 0  12.56636 1 0  15.70795 1 0  18.84954 1 0  21.99113 1 0  25.13272 1 0  28.27431 1 0  31.4159 1 0  </DataArray>
</Points>
<Cells>
<DataArray  type="UInt32"  Name="connectivity"  format="ascii">0 1 12  0 11 12  1 2 13  1 12 13  2 3 14  2 13 14  3 4 15  3 14 15  4 5 16  4 15 16  5 6 17  5 16 17  6 7 18  6 17 18  7 8 19  7 18 19  8 9 20  8 19 20  9 10 21  9 20 21  </DataArray>
<DataArray  type="UInt32"  Name="offsets"  format="ascii">3 6 9 12 15 18 21 24 27 30 33 36 39 42 45 48 51 54 57 60 </DataArray>
<DataArray  type="UInt8"  Name="types"  format="ascii">5 5 5 5 5 5 5 5 5 5 5 5 5 5 5 5 5 5 5 5 </DataArray>
</Cells>
<PointData  Vectors="f_5"> 
<DataArray  type="Float64"  Name="f_5"  NumberOfComponents="3" format="ascii">0.0000000000000000e+00 0.0000000000000000e+00 0.0000000000000000e+00  1.4685891052190132e-14 5.1805395807037521e-14 0.0000000000000000e+00  1.7468376226100380e-14 1.6281058739690305e-13 0.0000000000000000e+00  5.9257867111407175e-15 2.4950569688670296e-13 0.0000000000000000e+00  -1.2367059740612864e-14 2.4003019276619276e-13 0.0000000000000000e+00  -2.0010091133745343e-14 1.4432208113238410e-13 0.0000000000000000e+00  -9.3549221729047860e-15 5.8364008210017998e-14 0.0000000000000000e+00  9.1094104393606809e-15 6.9869458858503786e-14 0.0000000000000000e+00  1.7818717719147621e-14 1.6688119019874382e-13 0.0000000000000000e+00  1.4280077585747207e-14 2.7785678128823479e-13 0.0000000000000000e+00  0.0000000000000000e+00 3.2818428857664339e-13 0.0000000000000000e+00  0.0000000000000000e+00 4.3405796840036755e-03 0.0000000000000000e+00  -1.6045965392294289e-14 4.3405796840555325e-03 0.0000000000000000e+00  -1.9951674106349318e-14 4.3405796841666225e-03 0.0000000000000000e+00  -9.0693981920548033e-15 4.3405796842530767e-03 0.0000000000000000e+00  8.7776830742811865e-15 4.3405796842431038e-03 0.0000000000000000e+00  1.6006750731501331e-14 4.3405796841472716e-03 0.0000000000000000e+00  5.7379606099912253e-15 4.3405796840616465e-03 0.0000000000000000e+00  -1.2212330332518898e-14 4.3405796840733637e-03 0.0000000000000000e+00  -2.0339321778799149e-14 4.3405796841705013e-03 0.0000000000000000e+00  -1.5676011714934959e-14 4.3405796842814065e-03 0.0000000000000000e+00  0.0000000000000000e+00 4.3405796843316632e-03 0.0000000000000000e+00  </DataArray> 
</PointData> 
</Piece>
</UnstructuredGrid>
</VTKFile>