<?xml version="1.0"?>
<VTKFile type="UnstructuredGrid"  version="0.1"  >
<UnstructuredGrid>
<Piece  NumberOfPoints="22" NumberOfCells="20">
<Points>
<DataArray  type="Float64"  NumberOfComponents="3"  format="ascii">0 0 0  3.14159 0 0  6.28318 0 0  9.424770000000001 0 0  12.56636 0 0  15.70795 0 0  18.84954 0 0  21.99113 0 0  25.13272 0 0  28.27431 0 0  31.4159 0 0  0 1 0  3.14159 1 0  6.28318 1 0  9.424770000000001 1 0  12.56636 1 0  15.70795 1 0  18.84954 1 0  21.99113 1 0  25.13272 1 0  28.27431 1 0  31.4159 1 0  </DataArray>
</Points>
<Cells>
<DataArray  type="UInt32"  Name="connectivity"  format="ascii">0 1 12  0 11 12  1 2 13  1 12 13  2 3 14  2 13 14  3 4 15  3 14 15  4 5 16  4 15 16  5 6 17  5 16 17  6 7 18  6 17 18  7 8 19  7 18 19  8 9 20  8 19 20  9 10 21  9 20 21  </DataArray>
<DataArray  type="UInt32"  Name="offsets"  format="ascii">3 6 9 12 15 18 21 24 27 30 33 36 39 42 45 48 51 54 57 60 </DataArray>
<DataArray  type="UInt8"  Name="types"  format="ascii">5 5 5 5 5 5 5 5 5 5 5 5 5 5 5 5 5 5 5 5 </DataArray>
</Cells>
<PointData  Vectors="f_5"> 
<DataArray  type="Float64"  Name="f_5"  NumberOfComponents="3" format="ascii">0.0000000000000000e+00 0.0000000000000000e+00 0.0000000000000000e+00  1.5290391687932939e-15 5.2386311001809287e-15 0.0000000000000000e+00  3.6574136448338988e-15 2.3494276926021119e-14 0.0000000000000000e+00  4.6385968919175803e-15 5.3949790081546142e-14 0.0000000000000000e+00  3.7075703608330367e-15 8.2608324794079415e-14 0.0000000000000000e+00  5.8306959040775287e-15 1.1590159289937101e-13 0.0000000000000000e+00  8.0473165964410933e-15 1.6482076732037072e-13 0.0000000000000000e+00  7.7891049344704994e-15 2.1903999585497901e-13 0.0000000000000000e+00  5.4280201537513462e-15 2.6500268746047024e-13 0.0000000000000000e+00  1.4425668109365340e-15 2.8845033652476076e-13 0.0000000000000000e+00  0.0000000000000000e+00 2.9308832770483457e-13 0.0000000000000000e+00  0.0000000000000000e+00 1.7983829094554290e-03 0.0000000000000000e+00  -1.9630735754662214e-15 1.7983829094606666e-03 0.0000000000000000e+00  -4.6322022085868861e-15 1.7983829094790438e-03 0.0000000000000000e+00  -5.6798399293196702e-15 1.7983829095094854e-03 0.0000000000000000e+00  -4.8163616294805719e-15 1.7983829095380524e-03 0.0000000000000000e+00  -7.1882600888832267e-15 1.7983829095713545e-03 0.0000000000000000e+00  -9.3223884549893566e-15 1.7983829096203084e-03 0.0000000000000000e+00  -8.9560656676201964e-15 1.7983829096745491e-03 0.0000000000000000e+00  -6.4140095233648597e-15 1.7983829097204256e-03 0.0000000000000000e+00  -1.9475221185055679e-15 1.7983829097439096e-03 0.0000000000000000e+00  0.0000000000000000e+00 1.7983829097484583e-03 0.0000000000000000e+00  </DataArray> 
</PointData> 
</Piece>
</UnstructuredGrid>
</VTKFile>