<?xml version="1.0"?>
<VTKFile type="UnstructuredGrid"  version="0.1"  >
<UnstructuredGrid>
<Piece  NumberOfPoints="22" NumberOfCells="20">
<Points>
<DataArray  type="Float64"  NumberOfComponents="3"  format="ascii">0 0 0  3.14159 0 0  6.28318 0 0  9.424770000000001 0 0  12.56636 0 0  15.70795 0 0  18.84954 0 0  21.99113 0 0  25.13272 0 0  28.27431 0 0  31.4159 0 0  0 1 0  3.14159 1 0  6.28318 1 0  9.424770000000001 1 0  12.56636 1 0  15.70795 1 0  18.84954 1 0  21.99113 1 0  25.13272 1 0  28.27431 1 0  31.4159 1 0  </DataArray>
</Points>
<Cells>
<DataArray  type="UInt32"  Name="connectivity"  format="ascii">0 1 12  0 11 12  1 2 13  1 12 13  2 3 14  2 13 14  3 4 15  3 14 15  4 5 16  4 15 16  5 6 17  5 16 17  6 7 18  6 17 18  7 8 19  7 18 19  8 9 20  8 19 20  9 10 21  9 20 21  </DataArray>
<DataArray  type="UInt32"  Name="offsets"  format="ascii">3 6 9 12 15 18 21 24 27 30 33 36 39 42 45 48 51 54 57 60 </DataArray>
<DataArray  type="UInt8"  Name="types"  format="ascii">5 5 5 5 5 5 5 5 5 5 5 5 5 5 5 5 5 5 5 5 </DataArray>
</Cells>
<PointData  Vectors="f_5"> 
<DataArray  type="Float64"  Name="f_5"  NumberOfComponents="3" format="ascii">0.0000000000000000e+00 0.0000000000000000e+00 0.0000000000000000e+00  1.7766339430010520e-15 1.0689344772336776e-14 0.0000000000000000e+00  -1.0427328206542203e-15 2.0484482561860285e-14 0.0000000000000000e+00  -4.9214965903968576e-15 1.2103387222264680e-14 0.0000000000000000e+00  -9.1300526557358041e-15 -2.0567760505649396e-14 0.0000000000000000e+00  -1.0212394681907777e-14 -7.2851436003097844e-14 0.0000000000000000e+00  -4.0610103581950524e-15 -1.0706538175580440e-13 0.0000000000000000e+00  1.5665380983923630e-15 -1.0282472025852761e-13 0.0000000000000000e+00  5.3700844001212588e-16 -8.7534646324154056e-14 0.0000000000000000e+00  -9.9661662861974252e-16 -8.3811169780150160e-14 0.0000000000000000e+00  0.0000000000000000e+00 -8.5277843930387077e-14 0.0000000000000000e+00  0.0000000000000000e+00 4.3903623591777553e-03 0.0000000000000000e+00  -3.3601140313945114e-15 4.3903623591883658e-03 0.0000000000000000e+00  -1.5291153245333501e-15 4.3903623591980577e-03 0.0000000000000000e+00  1.4713918449480688e-15 4.3903623591896243e-03 0.0000000000000000e+00  5.4919626616071311e-15 4.3903623591567886e-03 0.0000000000000000e+00  6.5141806580904821e-15 4.3903623591045483e-03 0.0000000000000000e+00  6.6686205657503769e-16 4.3903623590704228e-03 0.0000000000000000e+00  -4.4865594471269869e-15 4.3903623590747006e-03 0.0000000000000000e+00  -2.6214866919423603e-15 4.3903623590899428e-03 0.0000000000000000e+00  -2.3612003028446815e-16 4.3903623590936065e-03 0.0000000000000000e+00  0.0000000000000000e+00 4.3903623590921814e-03 0.0000000000000000e+00  </DataArray> 
</PointData> 
</Piece>
</UnstructuredGrid>
</VTKFile>