<?xml version="1.0"?>
<VTKFile type="UnstructuredGrid"  version="0.1"  >
<UnstructuredGrid>
<Piece  NumberOfPoints="22" NumberOfCells="20">
<Points>
<DataArray  type="Float64"  NumberOfComponents="3"  format="ascii">0 0 0  3.14159 0 0  6.28318 0 0  9.424770000000001 0 0  12.56636 0 0  15.70795 0 0  18.84954 0 0  21.99113 0 0  25.13272 0 0  28.27431 0 0  31.4159 0 0  0 1 0  3.14159 1 0  6.28318 1 0  9.424770000000001 1 0  12.56636 1 0  15.70795 1 0  18.84954 1 0  21.99113 1 0  25.13272 1 0  28.27431 1 0  31.4159 1 0  </DataArray>
</Points>
<Cells>
<DataArray  type="UInt32"  Name="connectivity"  format="ascii">0 1 12  0 11 12  1 2 13  1 12 13  2 3 14  2 13 14  3 4 15  3 14 15  4 5 16  4 15 16  5 6 17  5 16 17  6 7 18  6 17 18  7 8 19  7 18 19  8 9 20  8 19 20  9 10 21  9 20 21  </DataArray>
<DataArray  type="UInt32"  Name="offsets"  format="ascii">3 6 9 12 15 18 21 24 27 30 33 36 39 42 45 48 51 54 57 60 </DataArray>
<DataArray  type="UInt8"  Name="types"  format="ascii">5 5 5 5 5 5 5 5 5 5 5 5 5 5 5 5 5 5 5 5 </DataArray>
</Cells>
<PointData  Vectors="f_5"> 
<DataArray  type="Float64"  Name="f_5"  NumberOfComponents="3" format="ascii">0.0000000000000000e+00 0.0000000000000000e+00 0.0000000000000000e+00  -2.6069645819262777e-15 -9.3579842950054998e-15 0.0000000000000000e+00  3.3202192644760854e-16 -1.4906058562742667e-14 0.0000000000000000e+00  4.3155279580632160e-15 5.0251151006806962e-15 0.0000000000000000e+00  6.6612264279340871e-15 4.8886205617195182e-14 0.0000000000000000e+00  2.5817242308899701e-15 8.6466972943231378e-14 0.0000000000000000e+00  -4.1013619140454685e-15 9.0394815359859417e-14 0.0000000000000000e+00  -1.3062613785990879e-14 4.1949093877726427e-14 0.0000000000000000e+00  -1.5877588841091546e-14 -4.6750405687273770e-14 0.0000000000000000e+00  -1.0090970333857531e-14 -1.2676327585647684e-13 0.0000000000000000e+00  0.0000000000000000e+00 -1.5790247141069621e-13 0.0000000000000000e+00  0.0000000000000000e+00 2.5467570143549415e-03 0.0000000000000000e+00  2.0157403626364061e-15 2.5467570143456620e-03 0.0000000000000000e+00  -1.6049549781134013e-15 2.5467570143402054e-03 0.0000000000000000e+00  -6.3912126215700070e-15 2.5467570143601890e-03 0.0000000000000000e+00  -9.0009313716349038e-15 2.5467570144040246e-03 0.0000000000000000e+00  -4.9419864268966830e-15 2.5467570144417084e-03 0.0000000000000000e+00  2.1286656803109200e-15 2.5467570144453106e-03 0.0000000000000000e+00  1.1221536828317184e-14 2.5467570143967882e-03 0.0000000000000000e+00  1.4413266629282060e-14 2.5467570143081139e-03 0.0000000000000000e+00  9.4443056076007756e-15 2.5467570142281700e-03 0.0000000000000000e+00  0.0000000000000000e+00 2.5467570141970491e-03 0.0000000000000000e+00  </DataArray> 
</PointData> 
</Piece>
</UnstructuredGrid>
</VTKFile>