<?xml version="1.0"?>
<VTKFile type="UnstructuredGrid"  version="0.1"  >
<UnstructuredGrid>
<Piece  NumberOfPoints="22" NumberOfCells="20">
<Points>
<DataArray  type="Float64"  NumberOfComponents="3"  format="ascii">0 0 0  3.14159 0 0  6.28318 0 0  9.424770000000001 0 0  12.56636 0 0  15.70795 0 0  18.84954 0 0  21.99113 0 0  25.13272 0 0  28.27431 0 0  31.4159 0 0  0 1 0  3.14159 1 0  6.28318 1 0  9.424770000000001 1 0  12.56636 1 0  15.70795 1 0  18.84954 1 0  21.99113 1 0  25.13272 1 0  28.27431 1 0  31.4159 1 0  </DataArray>
</Points>
<Cells>
<DataArray  type="UInt32"  Name="connectivity"  format="ascii">0 1 12  0 11 12  1 2 13  1 12 13  2 3 14  2 13 14  3 4 15  3 14 15  4 5 16  4 15 16  5 6 17  5 16 17  6 7 18  6 17 18  7 8 19  7 18 19  8 9 20  8 19 20  9 10 21  9 20 21  </DataArray>
<DataArray  type="UInt32"  Name="offsets"  format="ascii">3 6 9 12 15 18 21 24 27 30 33 36 39 42 45 48 51 54 57 60 </DataArray>
<DataArray  type="UInt8"  Name="types"  format="ascii">5 5 5 5 5 5 5 5 5 5 5 5 5 5 5 5 5 5 5 5 </DataArray>
</Cells>
<PointData  Vectors="f_5"> 
<DataArray  type="Float64"  Name="f_5"  NumberOfComponents="3" format="ascii">0.0000000000000000e+00 0.0000000000000000e+00 0.0000000000000000e+00  -5.8508984062880442e-15 -1.8010762096839497e-14 0.0000000000000000e+00  -1.1575432494500515e-14 -7.3411666873597595e-14 0.0000000000000000e+00  -1.3755630272864306e-14 -1.5356862438639762e-13 0.0000000000000000e+00  -1.4055347438578748e-14 -2.4048647647680507e-13 0.0000000000000000e+00  -1.3246964608209534e-14 -3.2646509657338121e-13 0.0000000000000000e+00  -1.0363162533852534e-14 -4.0046572579182265e-13 0.0000000000000000e+00  -6.2279663640500395e-15 -4.5097216026894938e-13 0.0000000000000000e+00  -2.8936937383798454e-15 -4.7847126346235073e-13 0.0000000000000000e+00  -7.1890103573206816e-16 -4.8925079253555468e-13 0.0000000000000000e+00  0.0000000000000000e+00 -4.9091061717807505e-13 0.0000000000000000e+00  0.0000000000000000e+00 5.4984883313045506e-04 0.0000000000000000e+00  5.8473276566208795e-15 5.4984883311246294e-04 0.0000000000000000e+00  1.1500657475315864e-14 5.4984883305694561e-04 0.0000000000000000e+00  1.3491364944443639e-14 5.4984883297679434e-04 0.0000000000000000e+00  1.4040390053146766e-14 5.4984883288994161e-04 0.0000000000000000e+00  1.3029606805659841e-14 5.4984883280396275e-04 0.0000000000000000e+00  9.9487828812513000e-15 5.4984883273002331e-04 0.0000000000000000e+00  5.8478814463433674e-15 5.4984883267958546e-04 0.0000000000000000e+00  2.7481027689058500e-15 5.4984883265204478e-04 0.0000000000000000e+00  7.8650976540090096e-16 5.4984883264118042e-04 0.0000000000000000e+00  0.0000000000000000e+00 5.4984883263952701e-04 0.0000000000000000e+00  </DataArray> 
</PointData> 
</Piece>
</UnstructuredGrid>
</VTKFile>