<?xml version="1.0"?>
<VTKFile type="UnstructuredGrid"  version="0.1"  >
<UnstructuredGrid>
<Piece  NumberOfPoints="22" NumberOfCells="20">
<Points>
<DataArray  type="Float64"  NumberOfComponents="3"  format="ascii">0 0 0  3.14159 0 0  6.28318 0 0  9.424770000000001 0 0  12.56636 0 0  15.70795 0 0  18.84954 0 0  21.99113 0 0  25.13272 0 0  28.27431 0 0  31.4159 0 0  0 1 0  3.14159 1 0  6.28318 1 0  9.424770000000001 1 0  12.56636 1 0  15.70795 1 0  18.84954 1 0  21.99113 1 0  25.13272 1 0  28.27431 1 0  31.4159 1 0  </DataArray>
</Points>
<Cells>
<DataArray  type="UInt32"  Name="connectivity"  format="ascii">0 1 12  0 11 12  1 2 13  1 12 13  2 3 14  2 13 14  3 4 15  3 14 15  4 5 16  4 15 16  5 6 17  5 16 17  6 7 18  6 17 18  7 8 19  7 18 19  8 9 20  8 19 20  9 10 21  9 20 21  </DataArray>
<DataArray  type="UInt32"  Name="offsets"  format="ascii">3 6 9 12 15 18 21 24 27 30 33 36 39 42 45 48 51 54 57 60 </DataArray>
<DataArray  type="UInt8"  Name="types"  format="ascii">5 5 5 5 5 5 5 5 5 5 5 5 5 5 5 5 5 5 5 5 </DataArray>
</Cells>
<PointData  Vectors="f_5"> 
<DataArray  type="Float64"  Name="f_5"  NumberOfComponents="3" format="ascii">0.0000000000000000e+00 0.0000000000000000e+00 0.0000000000000000e+00  6.9741323852910242e-17 1.5720070482556635e-15 0.0000000000000000e+00  -3.6878920733114745e-16 4.5904805748904543e-15 0.0000000000000000e+00  -1.3154893745021711e-15 2.6231925951993415e-15 0.0000000000000000e+00  1.5386556455861769e-15 9.7249605310472886e-15 0.0000000000000000e+00  2.1374863790106957e-15 2.8661958573315949e-14 0.0000000000000000e+00  3.0989592821391292e-16 4.3002393527621208e-14 0.0000000000000000e+00  -1.0562838882482925e-15 4.7802324435628549e-14 0.0000000000000000e+00  -1.7461703811944921e-15 4.5349260281917870e-14 0.0000000000000000e+00  -4.0149671244061624e-16 4.2480466736307892e-14 0.0000000000000000e+00  0.0000000000000000e+00 4.2448775348238934e-14 0.0000000000000000e+00  0.0000000000000000e+00 2.7960909377340694e-03 0.0000000000000000e+00  -8.3237233334766864e-16 2.7960909377357157e-03 0.0000000000000000e+00  -8.8945476105747457e-16 2.7960909377386049e-03 0.0000000000000000e+00  -3.7335434068503029e-16 2.7960909377365670e-03 0.0000000000000000e+00  -3.5847437810209517e-15 2.7960909377437518e-03 0.0000000000000000e+00  -4.3697986599333913e-15 2.7960909377626698e-03 0.0000000000000000e+00  -2.5486140757856813e-15 2.7960909377769947e-03 0.0000000000000000e+00  -1.2437048229298838e-15 2.7960909377817969e-03 0.0000000000000000e+00  -3.5380716277224245e-17 2.7960909377791722e-03 0.0000000000000000e+00  -5.1049338338815475e-16 2.7960909377763524e-03 0.0000000000000000e+00  0.0000000000000000e+00 2.7960909377763815e-03 0.0000000000000000e+00  </DataArray> 
</PointData> 
</Piece>
</UnstructuredGrid>
</VTKFile>