<?xml version="1.0"?>
<VTKFile type="UnstructuredGrid"  version="0.1"  >
<UnstructuredGrid>
<Piece  NumberOfPoints="22" NumberOfCells="20">
<Points>
<DataArray  type="Float64"  NumberOfComponents="3"  format="ascii">0 0 0  3.14159 0 0  6.28318 0 0  9.424770000000001 0 0  12.56636 0 0  15.70795 0 0  18.84954 0 0  21.99113 0 0  25.13272 0 0  28.27431 0 0  31.4159 0 0  0 1 0  3.14159 1 0  6.28318 1 0  9.424770000000001 1 0  12.56636 1 0  15.70795 1 0  18.84954 1 0  21.99113 1 0  25.13272 1 0  28.27431 1 0  31.4159 1 0  </DataArray>
</Points>
<Cells>
<DataArray  type="UInt32"  Name="connectivity"  format="ascii">0 1 12  0 11 12  1 2 13  1 12 13  2 3 14  2 13 14  3 4 15  3 14 15  4 5 16  4 15 16  5 6 17  5 16 17  6 7 18  6 17 18  7 8 19  7 18 19  8 9 20  8 19 20  9 10 21  9 20 21  </DataArray>
<DataArray  type="UInt32"  Name="offsets"  format="ascii">3 6 9 12 15 18 21 24 27 30 33 36 39 42 45 48 51 54 57 60 </DataArray>
<DataArray  type="UInt8"  Name="types"  format="ascii">5 5 5 5 5 5 5 5 5 5 5 5 5 5 5 5 5 5 5 5 </DataArray>
</Cells>
<PointData  Vectors="f_5"> 
<DataArray  type="Float64"  Name="f_5"  NumberOfComponents="3" format="ascii">0.0000000000000000e+00 0.0000000000000000e+00 0.0000000000000000e+00  -8.6576609528941959e-15 -2.9080832321679569e-14 0.0000000000000000e+00  -1.2096291522277655e-14 -9.5374741098813979e-14 0.0000000000000000e+00  -1.1779939753021370e-14 -1.7225899412108940e-13 0.0000000000000000e+00  -7.1720596920368476e-15 -2.3163528868104924e-13 0.0000000000000000e+00  -4.8690427889831009e-15 -2.6757720617368346e-13 0.0000000000000000e+00  -6.6328644247958998e-15 -3.0087780807078283e-13 0.0000000000000000e+00  -1.0981979184769094e-14 -3.5547408408640276e-13 0.0000000000000000e+00  -1.2349890329305858e-14 -4.2883299940432537e-13 0.0000000000000000e+00  -8.7286009524232029e-15 -4.9563462356941478e-13 0.0000000000000000e+00  0.0000000000000000e+00 -5.2365480981436391e-13 0.0000000000000000e+00  0.0000000000000000e+00 4.9987506246064949e-04 0.0000000000000000e+00  8.5745655319691467e-15 4.9987506243168449e-04 0.0000000000000000e+00  1.2047954226667593e-14 4.9987506236543497e-04 0.0000000000000000e+00  1.1714164011233319e-14 4.9987506228853890e-04 0.0000000000000000e+00  7.0356977022155781e-15 4.9987506222921082e-04 0.0000000000000000e+00  4.6234200285213225e-15 4.9987506219338184e-04 0.0000000000000000e+00  6.2780163938691403e-15 4.9987506216005325e-04 0.0000000000000000e+00  1.0482754467919718e-14 4.9987506210540035e-04 0.0000000000000000e+00  1.1986822687875134e-14 4.9987506203192234e-04 0.0000000000000000e+00  8.2891269417561981e-15 4.9987506196511847e-04 0.0000000000000000e+00  0.0000000000000000e+00 4.9987506193702094e-04 0.0000000000000000e+00  </DataArray> 
</PointData> 
</Piece>
</UnstructuredGrid>
</VTKFile>