<?xml version="1.0"?>
<VTKFile type="UnstructuredGrid"  version="0.1"  >
<UnstructuredGrid>
<Piece  NumberOfPoints="22" NumberOfCells="20">
<Points>
<DataArray  type="Float64"  NumberOfComponents="3"  format="ascii">0 0 0  3.14159 0 0  6.28318 0 0  9.424770000000001 0 0  12.56636 0 0  15.70795 0 0  18.84954 0 0  21.99113 0 0  25.13272 0 0  28.27431 0 0  31.4159 0 0  0 1 0  3.14159 1 0  6.28318 1 0  9.424770000000001 1 0  12.56636 1 0  15.70795 1 0  18.84954 1 0  21.99113 1 0  25.13272 1 0  28.27431 1 0  31.4159 1 0  </DataArray>
</Points>
<Cells>
<DataArray  type="UInt32"  Name="connectivity"  format="ascii">0 1 12  0 11 12  1 2 13  1 12 13  2 3 14  2 13 14  3 4 15  3 14 15  4 5 16  4 15 16  5 6 17  5 16 17  6 7 18  6 17 18  7 8 19  7 18 19  8 9 20  8 19 20  9 10 21  9 20 21  </DataArray>
<DataArray  type="UInt32"  Name="offsets"  format="ascii">3 6 9 12 15 18 21 24 27 30 33 36 39 42 45 48 51 54 57 60 </DataArray>
<DataArray  type="UInt8"  Name="types"  format="ascii">5 5 5 5 5 5 5 5 5 5 5 5 5 5 5 5 5 5 5 5 </DataArray>
</Cells>
<PointData  Vectors="f_5"> 
<DataArray  type="Float64"  Name="f_5"  NumberOfComponents="3" format="ascii">0.0000000000000000e+00 0.0000000000000000e+00 0.0000000000000000e+00  2.0966095095064786e-14 6.9189849610536602e-14 0.0000000000000000e+00  3.4891040352673311e-14 2.4843337133423159e-13 0.0000000000000000e+00  3.9901240520621253e-14 4.8874565616168022e-13 0.0000000000000000e+00  3.4872741317655101e-14 7.3014571773640681e-13 0.0000000000000000e+00  2.0537493780518421e-14 9.1194866747709970e-13 0.0000000000000000e+00  1.1049015740302485e-16 9.8146268747525898e-13 0.0000000000000000e+00  -1.5198389189215723e-14 9.3709367104999861e-13 0.0000000000000000e+00  -2.3387424226005284e-14 8.1534345495560503e-13 0.0000000000000000e+00  -1.7528762381678255e-14 6.8358261939853838e-13 0.0000000000000000e+00  0.0000000000000000e+00 6.2673092087433686e-13 0.0000000000000000e+00  0.0000000000000000e+00 1.5488006083380485e-03 0.0000000000000000e+00  -2.1401783380014821e-14 1.5488006084071772e-03 0.0000000000000000e+00  -3.5469951998514602e-14 1.5488006085864886e-03 0.0000000000000000e+00  -4.0748477706459234e-14 1.5488006088268367e-03 0.0000000000000000e+00  -3.6153384340513677e-14 1.5488006090683113e-03 0.0000000000000000e+00  -2.2156930110593522e-14 1.5488006092499683e-03 0.0000000000000000e+00  -1.5824951594880483e-15 1.5488006093192863e-03 0.0000000000000000e+00  1.3869685337032405e-14 1.5488006092747493e-03 0.0000000000000000e+00  2.2706539246530270e-14 1.5488006091528349e-03 0.0000000000000000e+00  1.7027155565406590e-14 1.5488006090210449e-03 0.0000000000000000e+00  0.0000000000000000e+00 1.5488006089644432e-03 0.0000000000000000e+00  </DataArray> 
</PointData> 
</Piece>
</UnstructuredGrid>
</VTKFile>