<?xml version="1.0"?>
<VTKFile type="UnstructuredGrid"  version="0.1"  >
<UnstructuredGrid>
<Piece  NumberOfPoints="22" NumberOfCells="20">
<Points>
<DataArray  type="Float64"  NumberOfComponents="3"  format="ascii">0 0 0  3.14159 0 0  6.28318 0 0  9.424770000000001 0 0  12.56636 0 0  15.70795 0 0  18.84954 0 0  21.99113 0 0  25.13272 0 0  28.27431 0 0  31.4159 0 0  0 1 0  3.14159 1 0  6.28318 1 0  9.424770000000001 1 0  12.56636 1 0  15.70795 1 0  18.84954 1 0  21.99113 1 0  25.13272 1 0  28.27431 1 0  31.4159 1 0  </DataArray>
</Points>
<Cells>
<DataArray  type="UInt32"  Name="connectivity"  format="ascii">0 1 12  0 11 12  1 2 13  1 12 13  2 3 14  2 13 14  3 4 15  3 14 15  4 5 16  4 15 16  5 6 17  5 16 17  6 7 18  6 17 18  7 8 19  7 18 19  8 9 20  8 19 20  9 10 21  9 20 21  </DataArray>
<DataArray  type="UInt32"  Name="offsets"  format="ascii">3 6 9 12 15 18 21 24 27 30 33 36 39 42 45 48 51 54 57 60 </DataArray>
<DataArray  type="UInt8"  Name="types"  format="ascii">5 5 5 5 5 5 5 5 5 5 5 5 5 5 5 5 5 5 5 5 </DataArray>
</Cells>
<PointData  Vectors="f_5"> 
<DataArray  type="Float64"  Name="f_5"  NumberOfComponents="3" format="ascii">0.0000000000000000e+00 0.0000000000000000e+00 0.0000000000000000e+00  1.2361863052473213e-15 7.4278603838150322e-15 0.0000000000000000e+00  6.4312791987275825e-16 2.0901743991068251e-14 0.0000000000000000e+00  -1.6390796946533341e-15 3.1477709123718202e-14 0.0000000000000000e+00  -6.1358178111677216e-15 1.8244857064529285e-14 0.0000000000000000e+00  -4.6272478387921482e-15 -2.6829462681895285e-15 0.0000000000000000e+00  -2.7430281515841118e-15 -1.0114666306913378e-14 0.0000000000000000e+00  -3.2943040736137615e-15 -1.6874606418115836e-14 0.0000000000000000e+00  -2.1457176403917832e-15 -2.4202571803240853e-14 0.0000000000000000e+00  -1.1330355358004232e-15 -2.8061423375215466e-14 0.0000000000000000e+00  0.0000000000000000e+00 -2.8756582122994187e-14 0.0000000000000000e+00  0.0000000000000000e+00 4.6890066085129465e-03 0.0000000000000000e+00  -2.9558941687119819e-15 4.6890066085202159e-03 0.0000000000000000e+00  -3.8061733846972402e-15 4.6890066085338786e-03 0.0000000000000000e+00  -2.3149308997933044e-15 4.6890066085441967e-03 0.0000000000000000e+00  1.8364172519997408e-15 4.6890066085309122e-03 0.0000000000000000e+00  3.8514324309947788e-17 4.6890066085101051e-03 0.0000000000000000e+00  -1.5164855766668855e-15 4.6890066085025555e-03 0.0000000000000000e+00  -3.0695234122309931e-16 4.6890066084957788e-03 0.0000000000000000e+00  -4.6893950030768827e-16 4.6890066084884271e-03 0.0000000000000000e+00  -3.3729688366875852e-16 4.6890066084845691e-03 0.0000000000000000e+00  0.0000000000000000e+00 4.6890066084837598e-03 0.0000000000000000e+00  </DataArray> 
</PointData> 
</Piece>
</UnstructuredGrid>
</VTKFile>