<?xml version="1.0"?>
<VTKFile type="UnstructuredGrid"  version="0.1"  >
<UnstructuredGrid>
<Piece  NumberOfPoints="22" NumberOfCells="20">
<Points>
<DataArray  type="Float64"  NumberOfComponents="3"  format="ascii">0 0 0  3.14159 0 0  6.28318 0 0  9.424770000000001 0 0  12.56636 0 0  15.70795 0 0  18.84954 0 0  21.99113 0 0  25.13272 0 0  28.27431 0 0  31.4159 0 0  0 1 0  3.14159 1 0  6.28318 1 0  9.424770000000001 1 0  12.56636 1 0  15.70795 1 0  18.84954 1 0  21.99113 1 0  25.13272 1 0  28.27431 1 0  31.4159 1 0  </DataArray>
</Points>
<Cells>
<DataArray  type="UInt32"  Name="connectivity"  format="ascii">0 1 12  0 11 12  1 2 13  1 12 13  2 3 14  2 13 14  3 4 15  3 14 15  4 5 16  4 15 16  5 6 17  5 16 17  6 7 18  6 17 18  7 8 19  7 18 19  8 9 20  8 19 20  9 10 21  9 20 21  </DataArray>
<DataArray  type="UInt32"  Name="offsets"  format="ascii">3 6 9 12 15 18 21 24 27 30 33 36 39 42 45 48 51 54 57 60 </DataArray>
<DataArray  type="UInt8"  Name="types"  format="ascii">5 5 5 5 5 5 5 5 5 5 5 5 5 5 5 5 5 5 5 5 </DataArray>
</Cells>
<PointData  Vectors="f_5"> 
<DataArray  type="Float64"  Name="f_5"  NumberOfComponents="3" format="ascii">0.0000000000000000e+00 0.0000000000000000e+00 0.0000000000000000e+00  2.0901038938090386e-14 6.5626943752463426e-14 0.0000000000000000e+00  3.9580267470953093e-14 2.5365292335013234e-13 0.0000000000000000e+00  6.0386224065912465e-14 5.6695514802897841e-13 0.0000000000000000e+00  7.6966867218841553e-14 9.9968005029776368e-13 0.0000000000000000e+00  8.4543757342191500e-14 1.5106430524061578e-12 0.0000000000000000e+00  7.9061376820104503e-14 2.0248758453421389e-12 0.0000000000000000e+00  6.6060614510358499e-14 2.4828913739665454e-12 0.0000000000000000e+00  4.5922033866196513e-14 2.8351218676320874e-12 0.0000000000000000e+00  2.3779294790514132e-14 3.0543999103091414e-12 0.0000000000000000e+00  0.0000000000000000e+00 3.1295591735699273e-12 0.0000000000000000e+00  0.0000000000000000e+00 6.9975517135007197e-04 0.0000000000000000e+00  -2.0543743859050418e-14 6.9975517141571640e-04 0.0000000000000000e+00  -3.9298732371996897e-14 6.9975517160379859e-04 0.0000000000000000e+00  -6.0144079803995057e-14 6.9975517191711708e-04 0.0000000000000000e+00  -7.6692521700381780e-14 6.9975517234999879e-04 0.0000000000000000e+00  -8.3933245161042273e-14 6.9975517286095877e-04 0.0000000000000000e+00  -7.8566244475867512e-14 6.9975517337518003e-04 0.0000000000000000e+00  -6.5855088591623273e-14 6.9975517383313304e-04 0.0000000000000000e+00  -4.5851714433423950e-14 6.9975517418531009e-04 0.0000000000000000e+00  -2.3797150682042404e-14 6.9975517440452027e-04 0.0000000000000000e+00  0.0000000000000000e+00 6.9975517447973062e-04 0.0000000000000000e+00  </DataArray> 
</PointData> 
</Piece>
</UnstructuredGrid>
</VTKFile>