<?xml version="1.0"?>
<VTKFile type="UnstructuredGrid"  version="0.1"  >
<UnstructuredGrid>
<Piece  NumberOfPoints="22" NumberOfCells="20">
<Points>
<DataArray  type="Float64"  NumberOfComponents="3"  format="ascii">0 0 0  3.14159 0 0  6.28318 0 0  9.424770000000001 0 0  12.56636 0 0  15.70795 0 0  18.84954 0 0  21.99113 0 0  25.13272 0 0  28.27431 0 0  31.4159 0 0  0 1 0  3.14159 1 0  6.28318 1 0  9.424770000000001 1 0  12.56636 1 0  15.70795 1 0  18.84954 1 0  21.99113 1 0  25.13272 1 0  28.27431 1 0  31.4159 1 0  </DataArray>
</Points>
<Cells>
<DataArray  type="UInt32"  Name="connectivity"  format="ascii">0 1 12  0 11 12  1 2 13  1 12 13  2 3 14  2 13 14  3 4 15  3 14 15  4 5 16  4 15 16  5 6 17  5 16 17  6 7 18  6 17 18  7 8 19  7 18 19  8 9 20  8 19 20  9 10 21  9 20 21  </DataArray>
<DataArray  type="UInt32"  Name="offsets"  format="ascii">3 6 9 12 15 18 21 24 27 30 33 36 39 42 45 48 51 54 57 60 </DataArray>
<DataArray  type="UInt8"  Name="types"  format="ascii">5 5 5 5 5 5 5 5 5 5 5 5 5 5 5 5 5 5 5 5 </DataArray>
</Cells>
<PointData  Vectors="f_5"> 
<DataArray  type="Float64"  Name="f_5"  NumberOfComponents="3" format="ascii">0.0000000000000000e+00 0.0000000000000000e+00 0.0000000000000000e+00  -8.7664584415453331e-15 -2.5583606874547634e-14 0.0000000000000000e+00  -1.6126147616918178e-14 -1.0022504893571925e-13 0.0000000000000000e+00  -1.9513684870755275e-14 -2.0828099283089149e-13 0.0000000000000000e+00  -1.5454763496989546e-14 -3.1500458357621797e-13 0.0000000000000000e+00  -4.6285577335404780e-15 -3.7365357694390228e-13 0.0000000000000000e+00  8.7826276857572222e-15 -3.5281254975332180e-13 0.0000000000000000e+00  1.6552472199426715e-14 -2.6516721487184415e-13 0.0000000000000000e+00  1.8714602823080468e-14 -1.4559054375711666e-13 0.0000000000000000e+00  1.2025091092064140e-14 -4.2453644238356177e-14 0.0000000000000000e+00  0.0000000000000000e+00 -1.9420956497964003e-15 0.0000000000000000e+00  0.0000000000000000e+00 2.2973610660661343e-03 0.0000000000000000e+00  7.7800563422093993e-15 2.2973610660404543e-03 0.0000000000000000e+00  1.4536209024934866e-14 2.2973610659657263e-03 0.0000000000000000e+00  1.7680703255898317e-14 2.2973610658576370e-03 0.0000000000000000e+00  1.3450674699251379e-14 2.2973610657509237e-03 0.0000000000000000e+00  2.5253986524746636e-15 2.2973610656923213e-03 0.0000000000000000e+00  -1.0871915294560357e-14 2.2973610657132972e-03 0.0000000000000000e+00  -1.8710440065816722e-14 2.2973610658008994e-03 0.0000000000000000e+00  -2.0312798248330367e-14 2.2973610659206061e-03 0.0000000000000000e+00  -1.2919143958051865e-14 2.2973610660235590e-03 0.0000000000000000e+00  0.0000000000000000e+00 2.2973610660641684e-03 0.0000000000000000e+00  </DataArray> 
</PointData> 
</Piece>
</UnstructuredGrid>
</VTKFile>