<?xml version="1.0"?>
<VTKFile type="UnstructuredGrid"  version="0.1"  >
<UnstructuredGrid>
<Piece  NumberOfPoints="22" NumberOfCells="20">
<Points>
<DataArray  type="Float64"  NumberOfComponents="3"  format="ascii">0 0 0  3.14159 0 0  6.28318 0 0  9.424770000000001 0 0  12.56636 0 0  15.70795 0 0  18.84954 0 0  21.99113 0 0  25.13272 0 0  28.27431 0 0  31.4159 0 0  0 1 0  3.14159 1 0  6.28318 1 0  9.424770000000001 1 0  12.56636 1 0  15.70795 1 0  18.84954 1 0  21.99113 1 0  25.13272 1 0  28.27431 1 0  31.4159 1 0  </DataArray>
</Points>
<Cells>
<DataArray  type="UInt32"  Name="connectivity"  format="ascii">0 1 12  0 11 12  1 2 13  1 12 13  2 3 14  2 13 14  3 4 15  3 14 15  4 5 16  4 15 16  5 6 17  5 16 17  6 7 18  6 17 18  7 8 19  7 18 19  8 9 20  8 19 20  9 10 21  9 20 21  </DataArray>
<DataArray  type="UInt32"  Name="offsets"  format="ascii">3 6 9 12 15 18 21 24 27 30 33 36 39 42 45 48 51 54 57 60 </DataArray>
<DataArray  type="UInt8"  Name="types"  format="ascii">5 5 5 5 5 5 5 5 5 5 5 5 5 5 5 5 5 5 5 5 </DataArray>
</Cells>
<PointData  Vectors="f_5"> 
<DataArray  type="Float64"  Name="f_5"  NumberOfComponents="3" format="ascii">0.0000000000000000e+00 0.0000000000000000e+00 0.0000000000000000e+00  -2.1465924321210394e-14 -6.7865384291245809e-14 0.0000000000000000e+00  -4.0883071798642655e-14 -2.6397601787610537e-13 0.0000000000000000e+00  -5.6621423258734152e-14 -5.7124321166219068e-13 0.0000000000000000e+00  -6.5080961787199964e-14 -9.5469160002171708e-13 0.0000000000000000e+00  -6.7383448526096017e-14 -1.3712155005912614e-12 0.0000000000000000e+00  -6.5692317616024259e-14 -1.7902719139668874e-12 0.0000000000000000e+00  -5.8420515293332179e-14 -2.1812195888669709e-12 0.0000000000000000e+00  -4.4480344579089971e-14 -2.5071559832323754e-12 0.0000000000000000e+00  -2.3672569504744900e-14 -2.7225440820673311e-12 0.0000000000000000e+00  0.0000000000000000e+00 -2.7971265615123684e-12 0.0000000000000000e+00  0.0000000000000000e+00 2.4996875781016427e-04 0.0000000000000000e+00  2.1333980226294658e-14 2.4996875774224080e-04 0.0000000000000000e+00  4.0561616003069280e-14 2.4996875754599353e-04 0.0000000000000000e+00  5.6212213010765446e-14 2.4996875723870451e-04 0.0000000000000000e+00  6.4764068635803455e-14 2.4996875685526969e-04 0.0000000000000000e+00  6.7050136245203014e-14 2.4996875643872637e-04 0.0000000000000000e+00  6.5506131037054399e-14 2.4996875601980458e-04 0.0000000000000000e+00  5.8357566298607228e-14 2.4996875562871643e-04 0.0000000000000000e+00  4.4331597697387493e-14 2.4996875530283242e-04 0.0000000000000000e+00  2.3755383991146266e-14 2.4996875508756722e-04 0.0000000000000000e+00  0.0000000000000000e+00 2.4996875501300593e-04 0.0000000000000000e+00  </DataArray> 
</PointData> 
</Piece>
</UnstructuredGrid>
</VTKFile>