<?xml version="1.0"?>
<VTKFile type="UnstructuredGrid"  version="0.1"  >
<UnstructuredGrid>
<Piece  NumberOfPoints="22" NumberOfCells="20">
<Points>
<DataArray  type="Float64"  NumberOfComponents="3"  format="ascii">0 0 0  3.14159 0 0  6.28318 0 0  9.424770000000001 0 0  12.56636 0 0  15.70795 0 0  18.84954 0 0  21.99113 0 0  25.13272 0 0  28.27431 0 0  31.4159 0 0  0 1 0  3.14159 1 0  6.28318 1 0  9.424770000000001 1 0  12.56636 1 0  15.70795 1 0  18.84954 1 0  21.99113 1 0  25.13272 1 0  28.27431 1 0  31.4159 1 0  </DataArray>
</Points>
<Cells>
<DataArray  type="UInt32"  Name="connectivity"  format="ascii">0 1 12  0 11 12  1 2 13  1 12 13  2 3 14  2 13 14  3 4 15  3 14 15  4 5 16  4 15 16  5 6 17  5 16 17  6 7 18  6 17 18  7 8 19  7 18 19  8 9 20  8 19 20  9 10 21  9 20 21  </DataArray>
<DataArray  type="UInt32"  Name="offsets"  format="ascii">3 6 9 12 15 18 21 24 27 30 33 36 39 42 45 48 51 54 57 60 </DataArray>
<DataArray  type="UInt8"  Name="types"  format="ascii">5 5 5 5 5 5 5 5 5 5 5 5 5 5 5 5 5 5 5 5 </DataArray>
</Cells>
<PointData  Vectors="f_5"> 
<DataArray  type="Float64"  Name="f_5"  NumberOfComponents="3" format="ascii">0.0000000000000000e+00 0.0000000000000000e+00 0.0000000000000000e+00  -7.4223535908795252e-15 -2.2365799988998094e-14 0.0000000000000000e+00  -1.0769989693390644e-14 -7.6730099959600728e-14 0.0000000000000000e+00  -1.0476338036970356e-14 -1.3908375102782151e-13 0.0000000000000000e+00  -5.7439824391716119e-15 -1.8685502926727002e-13 0.0000000000000000e+00  3.7314824904108545e-15 -1.8631953653040113e-13 0.0000000000000000e+00  7.6924144364873261e-15 -1.4306559421936224e-13 0.0000000000000000e+00  5.2226129950676308e-15 -9.4513248292689422e-14 0.0000000000000000e+00  -1.1596431983578265e-15 -7.7550554369834851e-14 0.0000000000000000e+00  -2.7647659746533431e-15 -8.8006425670355963e-14 0.0000000000000000e+00  0.0000000000000000e+00 -9.6075959344891118e-14 0.0000000000000000e+00  0.0000000000000000e+00 2.6464980241042760e-03 0.0000000000000000e+00  6.3913194260481508e-15 2.6464980240819384e-03 0.0000000000000000e+00  9.1797545840679238e-15 2.6464980240274911e-03 0.0000000000000000e+00  8.6920090933019635e-15 2.6464980239650788e-03 0.0000000000000000e+00  3.9316713113594898e-15 2.6464980239173453e-03 0.0000000000000000e+00  -5.6592163659123125e-15 2.6464980239180240e-03 0.0000000000000000e+00  -9.3636897578667929e-15 2.6464980239613821e-03 0.0000000000000000e+00  -6.8704525461288006e-15 2.6464980240096829e-03 0.0000000000000000e+00  -2.1556238759013097e-16 2.6464980240266298e-03 0.0000000000000000e+00  1.8434203716365742e-15 2.6464980240160215e-03 0.0000000000000000e+00  0.0000000000000000e+00 2.6464980240080305e-03 0.0000000000000000e+00  </DataArray> 
</PointData> 
</Piece>
</UnstructuredGrid>
</VTKFile>