<?xml version="1.0"?>
<VTKFile type="UnstructuredGrid"  version="0.1"  >
<UnstructuredGrid>
<Piece  NumberOfPoints="22" NumberOfCells="20">
<Points>
<DataArray  type="Float64"  NumberOfComponents="3"  format="ascii">0 0 0  3.14159 0 0  6.28318 0 0  9.424770000000001 0 0  12.56636 0 0  15.70795 0 0  18.84954 0 0  21.99113 0 0  25.13272 0 0  28.27431 0 0  31.4159 0 0  0 1 0  3.14159 1 0  6.28318 1 0  9.424770000000001 1 0  12.56636 1 0  15.70795 1 0  18.84954 1 0  21.99113 1 0  25.13272 1 0  28.27431 1 0  31.4159 1 0  </DataArray>
</Points>
<Cells>
<DataArray  type="UInt32"  Name="connectivity"  format="ascii">0 1 12  0 11 12  1 2 13  1 12 13  2 3 14  2 13 14  3 4 15  3 14 15  4 5 16  4 15 16  5 6 17  5 16 17  6 7 18  6 17 18  7 8 19  7 18 19  8 9 20  8 19 20  9 10 21  9 20 21  </DataArray>
<DataArray  type="UInt32"  Name="offsets"  format="ascii">3 6 9 12 15 18 21 24 27 30 33 36 39 42 45 48 51 54 57 60 </DataArray>
<DataArray  type="UInt8"  Name="types"  format="ascii">5 5 5 5 5 5 5 5 5 5 5 5 5 5 5 5 5 5 5 5 </DataArray>
</Cells>
<PointData  Vectors="f_5"> 
<DataArray  type="Float64"  Name="f_5"  NumberOfComponents="3" format="ascii">0.0000000000000000e+00 0.0000000000000000e+00 0.0000000000000000e+00  -8.9873476760193913e-15 -2.7049740919981416e-14 0.0000000000000000e+00  -1.2136954740399277e-14 -9.1541801242192066e-14 0.0000000000000000e+00  -5.7743400393834341e-15 -1.4321921056199079e-13 0.0000000000000000e+00  4.4202372361249558e-15 -1.3870221512054220e-13 0.0000000000000000e+00  1.1448037933523459e-14 -7.8528227718344293e-14 0.0000000000000000e+00  1.2109939802411025e-14 6.5303017638612478e-15 0.0000000000000000e+00  4.6761909249160469e-15 6.9217243701616983e-14 0.0000000000000000e+00  -5.0286853030802409e-15 7.2654474310740377e-14 0.0000000000000000e+00  -7.3386906494895210e-15 3.5241700857425243e-14 0.0000000000000000e+00  0.0000000000000000e+00 1.1925479977074048e-14 0.0000000000000000e+00  0.0000000000000000e+00 3.2447358446492172e-03 0.0000000000000000e+00  7.8047617208095290e-15 3.2447358446221265e-03 0.0000000000000000e+00  1.0091032076393588e-14 3.2447358445575189e-03 0.0000000000000000e+00  3.2367363644672756e-15 3.2447358445059108e-03 0.0000000000000000e+00  -7.1946642194636393e-15 3.2447358445106063e-03 0.0000000000000000e+00  -1.4242591502208212e-14 3.2447358445708121e-03 0.0000000000000000e+00  -1.4646740386434668e-14 3.2447358446558807e-03 0.0000000000000000e+00  -6.8877251818211443e-15 3.2447358447183559e-03 0.0000000000000000e+00  3.0946246784583502e-15 3.2447358447217967e-03 0.0000000000000000e+00  6.4954328540122264e-15 3.2447358446841914e-03 0.0000000000000000e+00  0.0000000000000000e+00 3.2447358446609405e-03 0.0000000000000000e+00  </DataArray> 
</PointData> 
</Piece>
</UnstructuredGrid>
</VTKFile>