<?xml version="1.0"?>
<VTKFile type="UnstructuredGrid"  version="0.1"  >
<UnstructuredGrid>
<Piece  NumberOfPoints="22" NumberOfCells="20">
<Points>
<DataArray  type="Float64"  NumberOfComponents="3"  format="ascii">0 0 0  3.14159 0 0  6.28318 0 0  9.424770000000001 0 0  12.56636 0 0  15.70795 0 0  18.84954 0 0  21.99113 0 0  25.13272 0 0  28.27431 0 0  31.4159 0 0  0 1 0  3.14159 1 0  6.28318 1 0  9.424770000000001 1 0  12.56636 1 0  15.70795 1 0  18.84954 1 0  21.99113 1 0  25.13272 1 0  28.27431 1 0  31.4159 1 0  </DataArray>
</Points>
<Cells>
<DataArray  type="UInt32"  Name="connectivity"  format="ascii">0 1 12  0 11 12  1 2 13  1 12 13  2 3 14  2 13 14  3 4 15  3 14 15  4 5 16  4 15 16  5 6 17  5 16 17  6 7 18  6 17 18  7 8 19  7 18 19  8 9 20  8 19 20  9 10 21  9 20 21  </DataArray>
<DataArray  type="UInt32"  Name="offsets"  format="ascii">3 6 9 12 15 18 21 24 27 30 33 36 39 42 45 48 51 54 57 60 </DataArray>
<DataArray  type="UInt8"  Name="types"  format="ascii">5 5 5 5 5 5 5 5 5 5 5 5 5 5 5 5 5 5 5 5 </DataArray>
</Cells>
<PointData  Vectors="f_5"> 
<DataArray  type="Float64"  Name="f_5"  NumberOfComponents="3" format="ascii">0.0000000000000000e+00 0.0000000000000000e+00 0.0000000000000000e+00  -1.7535719265463144e-15 -4.4164839076316443e-15 0.0000000000000000e+00  -3.0664170143112274e-15 -1.1752254392609817e-14 0.0000000000000000e+00  -4.5712541608807351e-15 -2.7259120910554498e-14 0.0000000000000000e+00  -1.9370971332646926e-15 -3.7493987313178923e-14 0.0000000000000000e+00  7.4373291078555265e-16 -2.6437270595210256e-14 0.0000000000000000e+00  -1.4028459497933424e-15 -1.4525271850571337e-14 0.0000000000000000e+00  -5.6245594067261185e-15 -2.4893479509258819e-14 0.0000000000000000e+00  -6.5337575445638589e-15 -5.4604739839916015e-14 0.0000000000000000e+00  -4.8668681056950114e-15 -8.5637488500757492e-14 0.0000000000000000e+00  0.0000000000000000e+00 -9.8787630265802049e-14 0.0000000000000000e+00  0.0000000000000000e+00 4.4899203078146753e-03 0.0000000000000000e+00  3.6182148921930672e-16 4.4899203078103333e-03 0.0000000000000000e+00  5.1431334913091476e-16 4.4899203078030085e-03 0.0000000000000000e+00  1.2161727620225349e-15 4.4899203077873812e-03 0.0000000000000000e+00  -2.1366132453549362e-15 4.4899203077773718e-03 0.0000000000000000e+00  -4.7436298386913840e-15 4.4899203077882902e-03 0.0000000000000000e+00  -2.6135835750325345e-15 4.4899203078001097e-03 0.0000000000000000e+00  2.2420467432756558e-15 4.4899203077895834e-03 0.0000000000000000e+00  4.0641948120333625e-15 4.4899203077598589e-03 0.0000000000000000e+00  3.5613168747982849e-15 4.4899203077288811e-03 0.0000000000000000e+00  0.0000000000000000e+00 4.4899203077157224e-03 0.0000000000000000e+00  </DataArray> 
</PointData> 
</Piece>
</UnstructuredGrid>
</VTKFile>