<?xml version="1.0"?>
<VTKFile type="UnstructuredGrid"  version="0.1"  >
<UnstructuredGrid>
<Piece  NumberOfPoints="22" NumberOfCells="20">
<Points>
<DataArray  type="Float64"  NumberOfComponents="3"  format="ascii">0 0 0  3.14159 0 0  6.28318 0 0  9.424770000000001 0 0  12.56636 0 0  15.70795 0 0  18.84954 0 0  21.99113 0 0  25.13272 0 0  28.27431 0 0  31.4159 0 0  0 1 0  3.14159 1 0  6.28318 1 0  9.424770000000001 1 0  12.56636 1 0  15.70795 1 0  18.84954 1 0  21.99113 1 0  25.13272 1 0  28.27431 1 0  31.4159 1 0  </DataArray>
</Points>
<Cells>
<DataArray  type="UInt32"  Name="connectivity"  format="ascii">0 1 12  0 11 12  1 2 13  1 12 13  2 3 14  2 13 14  3 4 15  3 14 15  4 5 16  4 15 16  5 6 17  5 16 17  6 7 18  6 17 18  7 8 19  7 18 19  8 9 20  8 19 20  9 10 21  9 20 21  </DataArray>
<DataArray  type="UInt32"  Name="offsets"  format="ascii">3 6 9 12 15 18 21 24 27 30 33 36 39 42 45 48 51 54 57 60 </DataArray>
<DataArray  type="UInt8"  Name="types"  format="ascii">5 5 5 5 5 5 5 5 5 5 5 5 5 5 5 5 5 5 5 5 </DataArray>
</Cells>
<PointData  Vectors="f_5"> 
<DataArray  type="Float64"  Name="f_5"  NumberOfComponents="3" format="ascii">0.0000000000000000e+00 0.0000000000000000e+00 0.0000000000000000e+00  -4.0937155851248773e-15 -1.0287180385755017e-14 0.0000000000000000e+00  -7.6214118108551329e-15 -4.1813615575367490e-14 0.0000000000000000e+00  -7.0906312416343127e-15 -7.8883990226533477e-14 0.0000000000000000e+00  -9.5562999318940814e-16 -9.4607606316774811e-14 0.0000000000000000e+00  6.0891656826421203e-15 -6.2591341188908275e-14 0.0000000000000000e+00  4.3769897935096684e-15 -1.2866104102475582e-14 0.0000000000000000e+00  -3.9743260818920497e-15 1.1722560968277921e-15 0.0000000000000000e+00  -9.2993314236939399e-15 -3.3514420898264048e-14 0.0000000000000000e+00  -7.2747018663169292e-15 -8.1796292719103514e-14 0.0000000000000000e+00  0.0000000000000000e+00 -1.0408134350384472e-13 0.0000000000000000e+00  0.0000000000000000e+00 4.1912168506553415e-03 0.0000000000000000e+00  2.6057678525560049e-15 4.1912168506450286e-03 0.0000000000000000e+00  4.8791023044017014e-15 4.1912168506134957e-03 0.0000000000000000e+00  3.6086289362282736e-15 4.1912168505764159e-03 0.0000000000000000e+00  -3.1203252523212075e-15 4.1912168505607462e-03 0.0000000000000000e+00  -1.0598525165026187e-14 4.1912168505929643e-03 0.0000000000000000e+00  -8.5587967131644973e-15 4.1912168506426503e-03 0.0000000000000000e+00  5.8578151455035594e-16 4.1912168506563633e-03 0.0000000000000000e+00  6.8311912656774061e-15 4.1912168506214658e-03 0.0000000000000000e+00  5.9449078231518569e-15 4.1912168505733255e-03 0.0000000000000000e+00  0.0000000000000000e+00 4.1912168505510152e-03 0.0000000000000000e+00  </DataArray> 
</PointData> 
</Piece>
</UnstructuredGrid>
</VTKFile>