<?xml version="1.0"?>
<VTKFile type="UnstructuredGrid"  version="0.1"  >
<UnstructuredGrid>
<Piece  NumberOfPoints="22" NumberOfCells="20">
<Points>
<DataArray  type="Float64"  NumberOfComponents="3"  format="ascii">0 0 0  3.14159 0 0  6.28318 0 0  9.424770000000001 0 0  12.56636 0 0  15.70795 0 0  18.84954 0 0  21.99113 0 0  25.13272 0 0  28.27431 0 0  31.4159 0 0  0 1 0  3.14159 1 0  6.28318 1 0  9.424770000000001 1 0  12.56636 1 0  15.70795 1 0  18.84954 1 0  21.99113 1 0  25.13272 1 0  28.27431 1 0  31.4159 1 0  </DataArray>
</Points>
<Cells>
<DataArray  type="UInt32"  Name="connectivity"  format="ascii">0 1 12  0 11 12  1 2 13  1 12 13  2 3 14  2 13 14  3 4 15  3 14 15  4 5 16  4 15 16  5 6 17  5 16 17  6 7 18  6 17 18  7 8 19  7 18 19  8 9 20  8 19 20  9 10 21  9 20 21  </DataArray>
<DataArray  type="UInt32"  Name="offsets"  format="ascii">3 6 9 12 15 18 21 24 27 30 33 36 39 42 45 48 51 54 57 60 </DataArray>
<DataArray  type="UInt8"  Name="types"  format="ascii">5 5 5 5 5 5 5 5 5 5 5 5 5 5 5 5 5 5 5 5 </DataArray>
</Cells>
<PointData  Vectors="f_5"> 
<DataArray  type="Float64"  Name="f_5"  NumberOfComponents="3" format="ascii">0.0000000000000000e+00 0.0000000000000000e+00 0.0000000000000000e+00  -1.0873102409704812e-14 -3.3901238942290972e-14 0.0000000000000000e+00  -2.1721006777467548e-14 -1.3658876054141182e-13 0.0000000000000000e+00  -3.0603766309295404e-14 -3.0282643327981074e-13 0.0000000000000000e+00  -3.5999022802157425e-14 -5.1289345621377170e-13 0.0000000000000000e+00  -3.9247202989707462e-14 -7.5107938470823607e-13 0.0000000000000000e+00  -3.6440734450329844e-14 -9.9008900214013849e-13 0.0000000000000000e+00  -3.0203739296957489e-14 -1.1988363699612884e-12 0.0000000000000000e+00  -2.3568884796130233e-14 -1.3681454376238979e-12 0.0000000000000000e+00  -1.4146739565168221e-14 -1.4872523240619649e-12 0.0000000000000000e+00  0.0000000000000000e+00 -1.5330714388255614e-12 0.0000000000000000e+00  0.0000000000000000e+00 3.4993877142810005e-04 0.0000000000000000e+00  1.0894713327505975e-14 3.4993877139411996e-04 0.0000000000000000e+00  2.1982631550665994e-14 3.4993877129139322e-04 0.0000000000000000e+00  3.0710622703159894e-14 3.4993877112511742e-04 0.0000000000000000e+00  3.6073922581359695e-14 3.4993877091506740e-04 0.0000000000000000e+00  3.8963325741605606e-14 3.4993877067688586e-04 0.0000000000000000e+00  3.6321970456621446e-14 3.4993877043795139e-04 0.0000000000000000e+00  3.0013551650500648e-14 3.4993877022918094e-04 0.0000000000000000e+00  2.3356692215073147e-14 3.4993877005982320e-04 0.0000000000000000e+00  1.3953262798037907e-14 3.4993876994072359e-04 0.0000000000000000e+00  0.0000000000000000e+00 3.4993876989485929e-04 0.0000000000000000e+00  </DataArray> 
</PointData> 
</Piece>
</UnstructuredGrid>
</VTKFile>