<?xml version="1.0"?>
<VTKFile type="UnstructuredGrid"  version="0.1"  >
<UnstructuredGrid>
<Piece  NumberOfPoints="22" NumberOfCells="20">
<Points>
<DataArray  type="Float64"  NumberOfComponents="3"  format="ascii">0 0 0  3.14159 0 0  6.28318 0 0  9.424770000000001 0 0  12.56636 0 0  15.70795 0 0  18.84954 0 0  21.99113 0 0  25.13272 0 0  28.27431 0 0  31.4159 0 0  0 1 0  3.14159 1 0  6.28318 1 0  9.424770000000001 1 0  12.56636 1 0  15.70795 1 0  18.84954 1 0  21.99113 1 0  25.13272 1 0  28.27431 1 0  31.4159 1 0  </DataArray>
</Points>
<Cells>
<DataArray  type="UInt32"  Name="connectivity"  format="ascii">0 1 12  0 11 12  1 2 13  1 12 13  2 3 14  2 13 14  3 4 15  3 14 15  4 5 16  4 15 16  5 6 17  5 16 17  6 7 18  6 17 18  7 8 19  7 18 19  8 9 20  8 19 20  9 10 21  9 20 21  </DataArray>
<DataArray  type="UInt32"  Name="offsets"  format="ascii">3 6 9 12 15 18 21 24 27 30 33 36 39 42 45 48 51 54 57 60 </DataArray>
<DataArray  type="UInt8"  Name="types"  format="ascii">5 5 5 5 5 5 5 5 5 5 5 5 5 5 5 5 5 5 5 5 </DataArray>
</Cells>
<PointData  Vectors="f_5"> 
<DataArray  type="Float64"  Name="f_5"  NumberOfComponents="3" format="ascii">0.0000000000000000e+00 0.0000000000000000e+00 0.0000000000000000e+00  -1.0444183488412080e-14 -3.3198510473269366e-14 0.0000000000000000e+00  -1.2212010147025258e-14 -1.0371783462849541e-13 0.0000000000000000e+00  -3.5551470611858646e-15 -1.4955597920329553e-13 0.0000000000000000e+00  9.4448683319932191e-15 -1.2426366364385789e-13 0.0000000000000000e+00  1.6639883721822497e-14 -3.2419416410075780e-14 0.0000000000000000e+00  1.2684531591037790e-14 7.0283474024698059e-14 0.0000000000000000e+00  -9.5985900026834836e-17 1.1923794238521662e-13 0.0000000000000000e+00  -1.2871629663808275e-14 8.1417321904020680e-14 0.0000000000000000e+00  -1.2740142723099688e-14 2.4152884596790631e-16 0.0000000000000000e+00  0.0000000000000000e+00 -4.1749432637175474e-14 0.0000000000000000e+00  0.0000000000000000e+00 3.0453628824568392e-03 0.0000000000000000e+00  9.3867123409834368e-15 3.0453628824236908e-03 0.0000000000000000e+00  1.0503544505533809e-14 3.0453628823531049e-03 0.0000000000000000e+00  1.4358812031247009e-15 3.0453628823073095e-03 0.0000000000000000e+00  -1.1635972627334463e-14 3.0453628823329014e-03 0.0000000000000000e+00  -1.8848877873482971e-14 3.0453628824248361e-03 0.0000000000000000e+00  -1.5055335099731328e-14 3.0453628825273930e-03 0.0000000000000000e+00  -2.0780381442487552e-15 3.0453628825761509e-03 0.0000000000000000e+00  1.1362393606522109e-14 3.0453628825380039e-03 0.0000000000000000e+00  1.1866443588181105e-14 3.0453628824568041e-03 0.0000000000000000e+00  0.0000000000000000e+00 3.0453628824149048e-03 0.0000000000000000e+00  </DataArray> 
</PointData> 
</Piece>
</UnstructuredGrid>
</VTKFile>